2001
Atoms. Timestep: 0
0 0.000000 0.000000 0.000000 0.000000 0.000000  0.000000 0.000000 0.000000 
2 0.173476 -0.822084 -0.052809 0.840188 4.920358  0.000000 0.000000 0.000000 
2 0.258385 0.755476 0.205824 0.798440 1.241252  0.000000 0.000000 0.000000 
1 -0.058143 0.330131 0.134115 0.335212 1.745131  -0.004094 -0.070122 0.000000 
1 -0.382074 -0.401126 -0.011301 0.553970 3.951313  -0.000000 0.000000 0.000000 
2 0.348476 -0.107853 0.006700 0.364784 5.983036  0.000000 0.000000 0.000000 
1 -0.186937 -0.896921 0.067856 0.916195 4.506910  -0.000000 0.000000 0.000000 
2 0.140861 0.014478 0.053484 0.141603 0.102420  0.000000 0.000000 0.000000 
1 0.081285 -0.228947 -0.181384 0.242949 5.053545  0.024299 0.294375 0.000000 
2 0.107405 0.114073 -0.049528 0.156679 0.815497  0.000000 0.000000 0.000000 
1 0.021679 0.106651 0.249462 0.108832 1.370258  0.009049 -0.426092 0.000000 
1 -0.389744 -0.333465 0.169556 0.512932 3.849330  -0.000000 0.000000 0.000000 
1 -0.292591 -0.045000 0.068776 0.296032 3.294194  0.000000 0.000000 0.000000 
1 -0.130293 0.476075 0.236388 0.493583 1.837937  0.000000 0.000000 0.000000 
1 0.096485 -0.765325 0.013372 0.771383 4.837798  0.009999 0.111863 0.000000 
1 -0.083116 0.391496 0.195765 0.400222 1.779993  -0.002604 -0.049293 0.000000 
2 0.307817 -0.171684 0.153862 0.352458 5.774414  0.000000 0.000000 0.000000 
1 -0.068772 -0.011339 0.224664 0.069701 3.305000  -0.021290 0.028627 0.000000 
1 -0.044560 -0.073580 -0.153893 0.086022 4.167862  -0.013412 0.267511 0.000000 
2 0.818845 0.349295 -0.075554 0.890233 0.403200  0.000000 0.000000 0.000000 
1 0.018583 0.007724 -0.021149 0.020124 0.393933  0.039453 -0.980942 0.000000 
2 0.194697 -0.137370 0.235317 0.238280 5.668741  0.000000 0.000000 0.000000 
1 -0.824504 -0.210374 -0.116667 0.850920 3.391414  0.000000 0.000000 0.000000 
1 -0.374044 -0.029522 0.130124 0.375207 3.220355  0.000000 0.000000 0.000000 
2 0.647490 0.163130 0.015803 0.667724 0.246806  0.000000 0.000000 0.000000 
2 0.396929 -0.184320 0.215918 0.437638 5.848450  0.000000 0.000000 0.000000 
1 -0.051828 -0.719083 -0.107853 0.720948 4.640438  -0.001717 0.035170 0.000000 
1 -0.243566 -0.591818 -0.072976 0.639979 4.321961  -0.000000 0.000000 0.000000 
2 0.121044 -0.113560 -0.029948 0.165974 5.529676  0.000000 0.000000 0.000000 
6 0.109258 0.821972 -0.084831 0.829201 1.438649  0.000000 0.000000 0.000000 
1 -0.346179 -0.823574 -0.074820 0.893372 4.314474  0.000000 0.000000 0.000000 
1 -0.526107 -0.798776 0.044320 0.956468 4.129963  0.000000 0.000000 0.000000 
2 0.762547 -0.394775 -0.030220 0.858676 5.805473  0.000000 0.000000 0.000000 
1 -0.160032 -0.364886 0.157383 0.398437 4.299072  -0.000000 0.000000 0.000000 
2 0.194112 0.890051 -0.008755 0.910972 1.356068  0.000000 0.000000 0.000000 
2 0.569786 0.760475 0.210064 0.950252 0.927775  0.000000 0.000000 0.000000 
1 -0.801753 0.365325 0.070540 0.881062 2.714043  0.000000 0.000000 0.000000 
2 0.138965 -0.603812 -0.109470 0.619596 4.938597  0.000000 0.000000 0.000000 
1 0.046120 0.303998 -0.026483 0.307476 1.420234  0.007112 -0.170403 0.000000 
1 -0.175863 -0.065123 -0.111883 0.187533 3.496239  -0.000000 0.000000 0.000000 
2 0.347111 -0.230189 -0.165196 0.416501 5.697617  0.000000 0.000000 0.000000 
1 -0.103121 0.002953 -0.186962 0.103163 3.112967  -0.003243 0.000000 0.000000 
2 0.697937 -0.302004 0.242376 0.760475 5.874803  0.000000 0.000000 0.000000 
1 -0.000895 -0.684444 -0.058406 0.684444 4.711082  -0.000307 0.051833 0.000000 
1 0.041140 0.366377 -0.102920 0.368679 1.458976  0.006109 -0.143065 0.000000 
2 0.336415 0.477966 -0.127794 0.584489 0.957493  0.000000 0.000000 0.000000 
2 0.197496 -0.705008 -0.187263 0.732149 4.985521  0.000000 0.000000 0.000000 
2 0.146435 0.074068 0.122536 0.164102 0.468285  0.000000 0.000000 0.000000 
1 -0.941456 -0.128333 -0.223735 0.950162 3.277071  0.022796 -0.003144 0.000000 
1 0.052269 -0.168321 -0.129969 0.176250 5.013481  0.015285 0.300355 0.000000 
2 0.717343 -0.149001 0.078282 0.732654 6.078386  0.000000 0.000000 0.000000 
2 0.532291 0.354363 0.129867 0.639458 0.587355  0.000000 0.000000 0.000000 
6 0.118930 0.063673 0.010105 0.134902 0.491547  0.000000 0.000000 0.000000 
1 -0.067807 0.016781 -0.147672 0.069853 2.898984  -0.020922 -0.080737 0.000000 
1 0.028854 -0.819173 0.036659 0.819681 4.747598  0.001450 0.056237 0.000000 
1 0.052091 -0.000001 -0.171096 0.052091 6.283170  0.059430 0.009930 0.000000 
2 0.144056 0.144907 0.194978 0.204329 0.788342  0.000000 0.000000 0.000000 
2 0.685504 -0.725043 -0.222971 0.997799 5.469763  0.000000 0.000000 0.000000 
1 0.064200 -0.033600 -0.247919 0.072462 5.801018  0.051895 0.470597 0.000000 
2 0.308296 0.507604 -0.159814 0.593892 1.024985  0.000000 0.000000 0.000000 
2 0.166094 -0.354731 0.206513 0.391690 5.150297  0.000000 0.000000 0.000000 
1 -0.315295 -0.171867 0.026243 0.359095 3.640666  0.000000 0.000000 0.000000 
2 0.366742 0.265189 0.093694 0.452576 0.626057  0.000000 0.000000 0.000000 
1 -0.177591 0.500218 0.128647 0.530808 1.911943  0.000000 0.000000 0.000000 
2 0.713039 -0.689995 0.038486 0.992228 5.514210  0.000000 0.000000 0.000000 
2 0.729366 0.165059 0.064455 0.747809 0.222556  0.000000 0.000000 0.000000 
2 0.667099 -0.337918 0.166619 0.747803 5.814312  0.000000 0.000000 0.000000 
2 0.865991 -0.112530 0.165519 0.873271 6.153966  0.000000 0.000000 0.000000 
2 0.739864 -0.076530 0.201683 0.743811 6.180114  0.000000 0.000000 0.000000 
2 0.343185 0.571799 -0.001371 0.666880 1.030241  0.000000 0.000000 0.000000 
2 0.734765 0.386056 0.194474 0.830012 0.483772  0.000000 0.000000 0.000000 
1 -0.446301 -0.472160 -0.125978 0.649707 3.955138  -0.000000 0.000000 0.000000 
1 -0.093408 0.209213 0.100310 0.229118 1.990715  -0.007264 -0.085960 0.000000 
2 0.293725 0.147715 -0.134286 0.328777 0.465967  0.000000 0.000000 0.000000 
1 -0.368458 -0.514800 -0.138172 0.633072 4.091184  -0.000000 0.000000 0.000000 
1 -0.095816 0.501614 0.235733 0.510684 1.759538  -0.000935 -0.006789 0.000000 
2 0.413519 0.356700 0.109634 0.546107 0.711763  0.000000 0.000000 0.000000 
2 0.442921 -0.161609 0.046270 0.471483 5.933326  0.000000 0.000000 0.000000 
2 0.259707 -0.368617 -0.081824 0.450918 5.326158  0.000000 0.000000 0.000000 
1 -0.244104 0.359465 -0.248384 0.434513 2.167341  0.000000 0.000000 0.000000 
1 0.060625 0.595418 0.166622 0.598496 1.469327  0.005847 -0.100836 0.000000 
1 -0.671130 0.076502 -0.008525 0.675476 3.028092  -0.000000 0.000000 0.000000 
2 0.125396 0.277982 0.106044 0.304956 1.147032  0.000000 0.000000 0.000000 
1 -0.533197 0.319945 -0.229568 0.621823 2.601137  -0.000000 0.000000 0.000000 
1 -0.451539 -0.529628 0.086968 0.695984 4.006411  -0.000000 0.000000 0.000000 
1 -0.268696 -0.219754 -0.157689 0.347116 3.827125  0.000000 0.000000 0.000000 
1 -0.296507 0.552640 0.115365 0.627158 2.063237  0.000000 0.000000 0.000000 
2 0.650890 -0.352975 -0.148894 0.740438 5.786276  0.000000 0.000000 0.000000 
1 -0.031168 0.684044 0.076565 0.684754 1.616330  -0.001079 -0.045771 0.000000 
1 -0.035021 0.531283 -0.206178 0.532436 1.636619  -0.001973 -0.051342 0.000000 
2 0.729548 0.487404 0.093062 0.877384 0.588987  0.000000 0.000000 0.000000 
1 -0.098600 -0.051566 -0.069200 0.111270 3.623457  -0.002124 0.001265 0.000000 
1 -0.143109 0.575691 0.083278 0.593211 1.814444  0.000000 0.000000 0.000000 
1 -0.372199 0.680649 -0.105810 0.775767 2.071202  0.000000 0.000000 0.000000 
2 0.189703 0.004266 0.242182 0.189751 0.022485  0.000000 0.000000 0.000000 
2 0.313259 0.765797 -0.084260 0.827391 1.182502  0.000000 0.000000 0.000000 
2 0.381083 -0.212850 0.229318 0.436497 5.773810  0.000000 0.000000 0.000000 
2 0.553792 0.527582 0.099538 0.764871 0.761165  0.000000 0.000000 0.000000 
1 0.104406 -0.677835 -0.058084 0.685829 4.865217  0.016718 0.122277 0.000000 
2 0.609832 -0.719340 0.208136 0.943051 5.415585  0.000000 0.000000 0.000000 
1 -0.194345 -0.060514 0.146828 0.203548 3.443450  0.000000 0.000000 0.000000 
2 0.250651 -0.159858 0.202466 0.297288 5.715455  0.000000 0.000000 0.000000 
1 -0.775708 -0.402636 -0.000928 0.873979 3.620369  0.000000 0.000000 0.000000 
6 0.107310 -0.122370 -0.113044 0.162757 5.432310  0.000000 0.000000 0.000000 
2 0.286771 -0.400274 -0.018169 0.492399 5.334061  0.000000 0.000000 0.000000 
2 0.209988 0.449331 -0.104473 0.495977 1.133620  0.000000 0.000000 0.000000 
2 0.439224 0.524579 0.113775 0.684178 0.873728  0.000000 0.000000 0.000000 
2 0.317168 -0.512976 -0.003789 0.603109 5.266149  0.000000 0.000000 0.000000 
2 0.126915 0.713045 -0.160896 0.724252 1.394651  0.000000 0.000000 0.000000 
2 0.322004 0.380580 -0.189371 0.498525 0.868578  0.000000 0.000000 0.000000 
2 0.327943 -0.149574 -0.087596 0.360443 5.855271  0.000000 0.000000 0.000000 
2 0.471406 -0.776609 0.061048 0.908485 5.257944  0.000000 0.000000 0.000000 
1 -0.416336 0.704271 -0.001963 0.818128 2.104689  -0.000000 0.000000 0.000000 
1 -0.305591 -0.249215 0.079416 0.394327 3.825724  -0.000000 0.000000 0.000000 
2 0.232473 0.113969 -0.174385 0.258906 0.455814  0.000000 0.000000 0.000000 
1 -0.070546 0.081528 0.073604 0.107812 2.284103  -0.014076 -0.176695 0.000000 
2 0.242273 0.156215 -0.084307 0.288270 0.572703  0.000000 0.000000 0.000000 
1 -0.369758 -0.214215 0.217247 0.427328 3.666680  0.000000 0.000000 0.000000 
1 0.019737 -0.264733 0.079373 0.265468 4.786805  0.002420 0.161927 0.000000 
2 0.361620 -0.326827 -0.171364 0.487427 5.548283  0.000000 0.000000 0.000000 
2 0.163793 0.603845 0.008857 0.625665 1.305920  0.000000 0.000000 0.000000 
2 0.268420 -0.488697 -0.036900 0.557561 5.214661  0.000000 0.000000 0.000000 
1 -0.181283 0.350255 -0.127837 0.394388 2.048403  -0.000000 0.000000 0.000000 
2 0.726056 -0.069348 0.069327 0.729360 6.187961  0.000000 0.000000 0.000000 
2 0.221966 0.255224 0.198780 0.338243 0.854982  0.000000 0.000000 0.000000 
1 0.085472 -0.401836 -0.247296 0.410825 4.921970  0.014641 0.181344 0.000000 
2 0.581943 0.510897 -0.103161 0.774386 0.720479  0.000000 0.000000 0.000000 
2 0.824569 0.263129 0.110503 0.865535 0.308897  0.000000 0.000000 0.000000 
1 -0.117392 -0.433491 0.243234 0.449105 4.447926  -0.000083 0.000626 0.000000 
2 0.139639 -0.158027 -0.013053 0.210883 5.436094  0.000000 0.000000 0.000000 
1 -0.069571 0.063035 -0.200220 0.093880 2.405444  -0.015414 -0.141622 0.000000 
2 0.109490 -0.281199 0.078560 0.301763 5.083696  0.000000 0.000000 0.000000 
2 0.124352 0.043382 -0.224246 0.131702 0.335662  0.000000 0.000000 0.000000 
1 -0.162930 -0.427735 0.140434 0.457716 4.348445  -0.000000 0.000000 0.000000 
1 -0.374206 -0.236282 -0.190444 0.442560 3.704797  -0.000000 0.000000 0.000000 
1 -0.478485 -0.325377 0.014950 0.578635 3.738780  0.000000 0.000000 0.000000 
2 0.277002 -0.232924 -0.097857 0.361917 5.584013  0.000000 0.000000 0.000000 
1 -0.367731 -0.303161 -0.165090 0.476585 3.831041  -0.000000 0.000000 0.000000 
1 -0.432602 -0.298774 0.059463 0.525747 3.746011  0.000000 0.000000 0.000000 
2 0.211362 0.099606 0.164904 0.233656 0.440390  0.000000 0.000000 0.000000 
1 0.047946 0.086507 0.211864 0.098906 1.064701  0.026763 -0.483831 0.000000 
2 0.223461 -0.426770 -0.137255 0.481733 5.194745  0.000000 0.000000 0.000000 
2 0.209838 -0.201368 -0.071403 0.290829 5.518382  0.000000 0.000000 0.000000 
1 -0.186016 -0.289667 0.157454 0.344251 4.141537  0.000000 0.000000 0.000000 
1 0.006513 -0.035764 -0.121266 0.036353 4.892523  0.009871 1.011459 0.000000 
1 -0.223676 0.584637 0.168052 0.625964 1.936205  -0.000000 0.000000 0.000000 
1 -0.168109 -0.143473 -0.150990 0.221009 3.848087  0.000000 0.000000 0.000000 
1 0.022206 -0.107493 0.087303 0.109763 4.916101  0.011882 0.391724 0.000000 
1 -0.585196 0.418534 -0.149824 0.719462 2.520736  0.000000 0.000000 0.000000 
1 0.037735 0.313412 -0.032996 0.315676 1.450973  0.006903 -0.163212 0.000000 
2 0.217376 0.318668 0.016423 0.385748 0.972158  0.000000 0.000000 0.000000 
1 -0.405380 0.379649 -0.242710 0.555398 2.388959  0.000000 0.000000 0.000000 
1 -0.030131 -0.380971 -0.097296 0.382161 4.633463  -0.002452 0.075686 0.000000 
1 -0.246500 -0.084078 0.074829 0.260445 3.470306  -0.000000 0.000000 0.000000 
2 0.337370 -0.855470 0.092993 0.919591 5.088031  0.000000 0.000000 0.000000 
1 -0.424629 -0.553789 -0.094025 0.697848 4.058241  -0.000000 0.000000 0.000000 
1 0.003415 -0.004959 0.016480 0.006021 5.315380  0.006466 5.057089 0.000000 
1 -0.614267 -0.071783 0.071346 0.618447 3.257925  -0.000000 0.000000 0.000000 
1 -0.077829 -0.393068 -0.068923 0.400699 4.516913  -0.003893 0.053433 0.000000 
2 0.459544 0.657158 0.088906 0.801897 0.960547  0.000000 0.000000 0.000000 
1 -0.012853 -0.030244 -0.218220 0.032862 4.310550  -0.012114 0.794429 0.000000 
1 -0.057584 -0.178541 0.059479 0.187597 4.400397  -0.007548 0.107681 0.000000 
2 0.567466 0.020365 -0.249437 0.567831 0.035872  0.000000 0.000000 0.000000 
1 -0.170985 -0.252853 -0.119215 0.305239 4.117799  -0.000000 -0.000000 0.000000 
1 -0.465646 0.720121 -0.159419 0.857555 2.144793  0.000000 0.000000 0.000000 
1 -0.380958 -0.547918 0.189505 0.667341 4.104836  0.000000 0.000000 0.000000 
2 0.122110 0.288447 0.192507 0.313230 1.170336  0.000000 0.000000 0.000000 
1 0.074995 -0.138205 0.001730 0.157242 5.209560  0.040124 0.417355 0.000000 
2 0.244331 0.629929 0.202085 0.675654 1.200790  0.000000 0.000000 0.000000 
2 0.268118 -0.289413 0.103033 0.394521 5.459611  0.000000 0.000000 0.000000 
2 0.498878 -0.225310 0.119480 0.547397 5.858974  0.000000 0.000000 0.000000 
1 -0.221047 -0.074045 0.213288 0.233119 3.464818  -0.000000 0.000000 0.000000 
1 -0.882965 -0.302731 -0.002797 0.933420 3.471890  0.000000 0.000000 0.000000 
2 0.368304 -0.863896 0.149823 0.939129 5.115385  0.000000 0.000000 0.000000 
2 0.594238 -0.017554 0.078600 0.594497 6.253654  0.000000 0.000000 0.000000 
2 0.658869 -0.664612 -0.087729 0.935852 5.493448  0.000000 0.000000 0.000000 
1 0.034614 -0.588145 0.068885 0.589162 4.771174  0.002196 0.079425 0.000000 
1 -0.062160 0.772921 0.147455 0.775417 1.651046  -0.001802 -0.030502 0.000000 
2 0.301242 0.523953 -0.014718 0.604379 1.049007  0.000000 0.000000 0.000000 
2 0.555460 -0.569446 0.182543 0.795490 5.485355  0.000000 0.000000 0.000000 
1 -0.506630 -0.429852 -0.043759 0.664414 3.845188  0.000000 0.000000 0.000000 
1 -0.579469 -0.143193 0.072801 0.596899 3.383850  -0.000000 0.000000 0.000000 
2 0.145172 0.030505 0.039511 0.148342 0.207115  0.000000 0.000000 0.000000 
2 0.347689 -0.608595 0.009075 0.700910 5.231437  0.000000 0.000000 0.000000 
1 -0.513994 0.032954 -0.193676 0.515049 3.077567  0.000000 0.000000 0.000000 
2 0.200774 -0.469197 -0.225750 0.510349 5.116721  0.000000 0.000000 0.000000 
1 -0.367384 0.113977 0.068828 0.384658 2.840769  0.000000 0.000000 0.000000 
1 0.002779 0.143956 -0.043461 0.143982 1.551495  0.000146 -0.256471 0.000000 
1 -0.082194 -0.398360 -0.241272 0.406751 4.508913  -0.005915 0.046956 0.000000 
1 -0.498026 -0.284826 0.156474 0.573721 3.661101  -0.000000 0.000000 0.000000 
2 0.446536 -0.013570 -0.011319 0.446743 6.252805  0.000000 0.000000 0.000000 
1 -0.037139 -0.045427 -0.212870 0.058676 4.027037  -0.018521 0.384513 0.000000 
2 0.112701 0.586551 -0.138699 0.597280 1.380968  0.000000 0.000000 0.000000 
1 -0.047649 -0.628435 0.211756 0.630238 4.636712  -0.001833 0.042040 0.000000 
2 0.273436 -0.373450 -0.030719 0.462852 5.344392  0.000000 0.000000 0.000000 
2 0.767492 -0.564377 0.224455 0.952662 5.649125  0.000000 0.000000 0.000000 
1 -0.746665 -0.175504 -0.083215 0.767014 3.372453  0.000000 0.000000 0.000000 
2 0.208334 -0.067952 -0.011224 0.219136 5.967897  0.000000 0.000000 0.000000 
2 0.456350 -0.095173 0.192159 0.466169 6.077580  0.000000 0.000000 0.000000 
1 0.034817 -0.180462 -0.020981 0.183790 4.902982  0.009457 0.269718 0.000000 
1 -0.036448 0.765577 0.202391 0.766444 1.618368  -0.001498 -0.034433 0.000000 
1 -0.374625 0.663106 0.231752 0.761612 2.085049  -0.000000 0.000000 0.000000 
1 -0.379061 -0.134987 0.030392 0.402379 3.483701  0.000000 0.000000 0.000000 
1 -0.616211 0.085880 -0.154486 0.622167 3.003117  -0.000000 0.000000 0.000000 
2 0.311697 -0.180335 0.076940 0.360105 5.758682  0.000000 0.000000 0.000000 
2 0.139763 -0.157662 0.053271 0.210692 5.437679  0.000000 0.000000 0.000000 
1 0.034705 0.104200 -0.063222 0.109827 1.249291  0.019454 -0.422051 0.000000 
1 -0.287876 -0.578892 0.046346 0.646520 4.250914  0.000000 0.000000 0.000000 
1 -0.553253 -0.222561 -0.220570 0.596341 3.524061  -0.000000 0.000000 0.000000 
2 0.559644 0.066811 -0.128687 0.563617 0.118820  0.000000 0.000000 0.000000 
2 0.305072 -0.158613 -0.245463 0.343841 5.803730  0.000000 0.000000 0.000000 
2 0.456584 -0.391465 0.135343 0.601427 5.574423  0.000000 0.000000 0.000000 
1 -0.883866 0.299630 -0.163468 0.933273 2.814751  -0.000000 0.000000 0.000000 
1 -0.313218 -0.373853 0.147616 0.487721 4.015013  -0.000000 0.000000 0.000000 
1 -0.257094 0.930830 -0.172332 0.965682 1.840277  0.000000 0.000000 0.000000 
2 0.711861 -0.521094 -0.066986 0.882204 5.651293  0.000000 0.000000 0.000000 
1 -0.107599 0.739852 -0.012097 0.747636 1.715218  -0.000850 -0.004362 0.000000 
2 0.629048 -0.707408 -0.188837 0.946640 5.439222  0.000000 0.000000 0.000000 
2 0.554449 -0.284530 0.109333 0.623194 5.809053  0.000000 0.000000 0.000000 
1 0.091757 0.159691 -0.108858 0.184175 1.049267  0.042677 -0.415954 0.000000 
6 0.090739 0.181566 0.063063 0.202977 1.107341  0.000000 0.000000 0.000000 
2 0.119691 -0.041463 -0.136224 0.126669 5.949703  0.000000 0.000000 0.000000 
1 0.010214 0.009415 -0.169588 0.013891 0.744679  0.009789 -3.609643 0.000000 
2 0.397857 -0.234548 0.074273 0.461848 5.750501  0.000000 0.000000 0.000000 
6 0.091107 0.043262 0.057113 0.100857 0.443323  0.000000 0.000000 0.000000 
1 -0.362902 0.152769 -0.001785 0.393746 2.743144  0.000000 0.000000 0.000000 
2 0.249869 -0.153357 -0.127966 0.293177 5.732719  0.000000 0.000000 0.000000 
2 0.552749 0.122520 -0.154645 0.566164 0.218129  0.000000 0.000000 0.000000 
1 0.009280 -0.431745 0.156952 0.431845 4.733880  0.000426 0.092633 0.000000 
2 0.347472 0.079198 0.248985 0.356383 0.224099  0.000000 0.000000 0.000000 
1 -0.275538 -0.445176 -0.149527 0.523548 4.158159  0.000000 0.000000 0.000000 
2 0.537351 -0.448282 -0.086192 0.699787 5.587910  0.000000 0.000000 0.000000 
2 0.614848 0.200494 -0.079259 0.646712 0.315214  0.000000 0.000000 0.000000 
1 -0.242812 -0.727236 0.151665 0.766701 4.390143  0.000000 0.000000 0.000000 
1 -0.262700 0.629290 0.202094 0.681922 1.966258  -0.000000 0.000000 0.000000 
2 0.274237 -0.700727 -0.101033 0.752479 5.085426  0.000000 0.000000 0.000000 
2 0.178506 0.062296 0.045555 0.189064 0.335770  0.000000 0.000000 0.000000 
1 0.003829 0.101385 -0.171362 0.101457 1.533043  0.001303 -0.386273 0.000000 
2 0.127212 0.048575 0.044559 0.136171 0.364753  0.000000 0.000000 0.000000 
2 0.835011 0.306695 0.222751 0.889553 0.351998  0.000000 0.000000 0.000000 
1 -0.040431 0.924333 -0.015475 0.925217 1.614509  -0.001193 -0.029282 0.000000 
1 -0.506042 -0.297495 -0.165581 0.587011 3.673057  0.000000 0.000000 0.000000 
2 0.425876 -0.213409 0.157774 0.476355 5.818654  0.000000 0.000000 0.000000 
1 -0.067911 -0.522117 0.041125 0.526515 4.583046  -0.002907 0.041028 0.000000 
1 -0.150447 -0.167621 -0.117914 0.225236 3.980931  -0.000000 0.000000 0.000000 
2 0.489119 -0.224489 -0.241675 0.538175 5.852901  0.000000 0.000000 0.000000 
1 -0.344039 -0.049248 -0.147143 0.347546 3.283773  0.000000 0.000000 0.000000 
1 -0.170951 -0.362719 -0.096416 0.400985 4.271961  0.000000 0.000000 0.000000 
1 -0.076868 0.640532 -0.028331 0.645128 1.690232  -0.002399 -0.033248 0.000000 
2 0.155447 0.685789 -0.083554 0.703186 1.347894  0.000000 0.000000 0.000000 
1 -0.307749 -0.694038 -0.120944 0.759208 4.295022  0.000000 0.000000 0.000000 
1 0.009796 -0.012953 0.172561 0.016241 5.359880  0.024645 1.572078 0.000000 
1 -0.296143 -0.522700 -0.089261 0.600763 4.196917  0.000000 0.000000 0.000000 
1 -0.000597 0.526830 0.174000 0.526830 1.571930  0.000118 -0.073341 0.000000 
1 -0.255182 -0.023123 -0.213382 0.256228 3.231959  -0.000000 0.000000 0.000000 
1 -0.872951 -0.172402 0.055705 0.889813 3.336577  0.000000 0.000000 0.000000 
1 -0.068257 -0.818485 0.229478 0.821326 4.629187  -0.001799 0.027106 0.000000 
2 0.330948 0.093708 -0.070029 0.343959 0.275928  0.000000 0.000000 0.000000 
1 -0.023714 0.001902 -0.247462 0.023790 3.061542  -0.028597 0.013352 0.000000 
2 0.124948 -0.264896 0.104131 0.292886 5.153131  0.000000 0.000000 0.000000 
2 0.447295 0.239565 -0.016265 0.507410 0.491709  0.000000 0.000000 0.000000 
2 0.169277 -0.088431 -0.008176 0.190984 5.801772  0.000000 0.000000 0.000000 
1 0.001510 0.043373 -0.207795 0.043400 1.535994  0.001924 -0.975494 0.000000 
2 0.593675 0.391888 0.055621 0.711355 0.583447  0.000000 0.000000 0.000000 
2 0.483775 0.831005 0.183735 0.961565 1.043600  0.000000 0.000000 0.000000 
1 0.082056 -0.468859 0.128641 0.475986 4.885646  0.014928 0.171139 0.000000 
1 -0.000504 -0.006978 0.039306 0.006997 4.640266  0.006466 5.057089 0.000000 
2 0.611410 0.423447 0.211286 0.743727 0.605725  0.000000 0.000000 0.000000 
2 0.632882 0.468871 0.223218 0.787642 0.637620  0.000000 0.000000 0.000000 
6 0.100783 -0.255756 -0.130340 0.274897 5.087764  0.000000 0.000000 0.000000 
1 -0.016097 0.093651 0.123365 0.095024 1.741020  -0.007196 -0.299042 0.000000 
1 0.011926 -0.172902 0.218857 0.173313 4.781255  0.004843 0.241495 0.000000 
1 0.054629 -0.079873 0.240554 0.096768 5.312267  0.033782 0.492579 0.000000 
1 -0.328870 0.092162 0.096232 0.341540 2.868363  -0.000000 0.000000 0.000000 
1 -0.194736 0.388304 0.077014 0.434398 2.035647  0.000000 0.000000 0.000000 
2 0.523899 0.293463 -0.185012 0.600492 0.510603  0.000000 0.000000 0.000000 
1 -0.202786 -0.318998 -0.181522 0.377997 4.146133  0.000000 0.000000 0.000000 
1 -0.099426 -0.056681 0.190342 0.114448 3.659722  -0.004451 0.032452 0.000000 
1 -0.207400 -0.038060 0.084163 0.210863 3.323081  0.000000 0.000000 0.000000 
1 0.035773 -0.310299 0.221611 0.312354 4.827168  0.004175 0.152197 0.000000 
1 -0.121549 -0.011440 -0.230868 0.122086 3.235438  0.000000 0.000000 0.000000 
1 -0.381758 0.117051 -0.144217 0.399300 2.844083  -0.000000 0.000000 0.000000 
1 -0.146489 0.064753 -0.095877 0.160162 2.725385  0.000000 0.000000 0.000000 
1 0.003867 0.003855 0.074893 0.005460 0.783840  0.009789 -3.609643 0.000000 
1 0.087476 -0.453627 -0.207908 0.461984 4.902887  0.013817 0.167480 0.000000 
2 0.664183 -0.420179 0.092338 0.785932 5.719122  0.000000 0.000000 0.000000 
2 0.829368 0.253338 -0.218663 0.867197 0.296457  0.000000 0.000000 0.000000 
2 0.473860 -0.230792 -0.161434 0.527075 5.829953  0.000000 0.000000 0.000000 
1 -0.090108 -0.062239 -0.056002 0.109513 3.746064  -0.004451 0.032452 0.000000 
1 -0.618934 -0.156486 0.100170 0.638409 3.389234  -0.000000 0.000000 0.000000 
1 -0.359139 -0.190670 0.161213 0.406615 3.629660  -0.000000 0.000000 0.000000 
2 0.224936 -0.893678 -0.139137 0.921551 4.958965  0.000000 0.000000 0.000000 
2 0.306165 0.215149 -0.059056 0.374201 0.612551  0.000000 0.000000 0.000000 
1 -0.013739 -0.807841 -0.056339 0.807957 4.695383  -0.000694 0.040145 0.000000 
2 0.457545 -0.814461 0.174636 0.934181 5.224228  0.000000 0.000000 0.000000 
1 -0.710762 -0.072320 0.067602 0.714432 3.242994  -0.000000 0.000000 0.000000 
1 -0.549622 -0.296839 0.001201 0.624658 3.636786  -0.000000 0.000000 0.000000 
1 0.025206 -0.671371 -0.235262 0.671844 4.749915  0.001358 0.066086 0.000000 
2 0.370707 0.471406 -0.180500 0.599707 0.904412  0.000000 0.000000 0.000000 
6 0.109378 -0.162519 0.138705 0.195898 5.304775  0.000000 0.000000 0.000000 
1 -0.367494 -0.636892 -0.157987 0.735311 4.189044  -0.000000 0.000000 0.000000 
2 0.239186 -0.201872 -0.197212 0.312990 5.582188  0.000000 0.000000 0.000000 
1 -0.012927 0.101405 -0.010111 0.102225 1.697596  -0.003077 -0.343192 0.000000 
1 -0.109500 -0.167030 -0.106132 0.199723 4.132105  -0.000383 0.004554 0.000000 
1 -0.946169 -0.041130 -0.139041 0.947063 3.185036  0.024226 -0.001221 0.000000 
2 0.488183 0.606368 0.218175 0.778463 0.892957  0.000000 0.000000 0.000000 
1 -0.181265 -0.232235 0.030504 0.294601 4.049638  0.000000 0.000000 0.000000 
1 -0.401423 -0.775701 -0.133576 0.873414 4.234842  0.000000 0.000000 0.000000 
2 0.242659 -0.580697 0.166277 0.629359 5.108210  0.000000 0.000000 0.000000 
1 -0.651858 -0.416024 -0.235774 0.773301 3.709637  -0.000000 0.000000 0.000000 
6 0.094435 -0.610319 0.131882 0.617582 4.865902  0.000000 0.000000 0.000000 
2 0.207249 -0.194598 -0.211623 0.284289 5.529258  0.000000 0.000000 0.000000 
1 -0.109917 0.133233 -0.160507 0.172722 2.260595  -0.000076 -0.002405 0.000000 
1 -0.265962 -0.354332 -0.060645 0.443043 4.068502  0.000000 0.000000 0.000000 
1 0.068838 -0.073638 -0.087144 0.100803 5.464109  0.045707 0.491539 0.000000 
2 0.208649 -0.570652 -0.197913 0.607600 5.062921  0.000000 0.000000 0.000000 
1 -0.502114 0.556741 -0.050612 0.749719 2.304649  -0.000000 0.000000 0.000000 
1 -0.319463 -0.231015 -0.113905 0.394239 3.767677  0.000000 0.000000 0.000000 
1 -0.062078 0.028199 0.200774 0.068183 2.715212  -0.020311 -0.146565 0.000000 
1 -0.854436 0.215657 0.087425 0.881232 2.894360  -0.000000 0.000000 0.000000 
6 0.075491 0.465558 -0.103784 0.471639 1.410044  0.000000 0.000000 0.000000 
1 -0.077702 0.233463 0.038361 0.246054 1.892086  -0.006724 -0.083408 0.000000 
1 -0.125101 0.015680 0.124722 0.126080 3.016906  -0.000000 0.000000 0.000000 
2 0.307027 -0.376563 -0.153757 0.485866 5.396414  0.000000 0.000000 0.000000 
1 0.053449 0.122276 -0.103414 0.133448 1.158705  0.023325 -0.402171 0.000000 
1 -0.000645 0.002737 0.200386 0.002812 1.802146  -0.006037 -4.742202 0.000000 
1 -0.309317 -0.747117 0.075245 0.808617 4.319860  -0.000000 0.000000 0.000000 
2 0.169824 -0.043926 -0.227635 0.175413 6.030076  0.000000 0.000000 0.000000 
2 0.498771 -0.593247 -0.193518 0.775058 5.411488  0.000000 0.000000 0.000000 
1 -0.201944 -0.046627 0.247098 0.207257 3.368507  0.000000 0.000000 0.000000 
2 0.316408 -0.588207 -0.017083 0.667908 5.205910  0.000000 0.000000 0.000000 
1 -0.738865 0.500320 0.105953 0.892324 2.546370  0.000000 0.000000 0.000000 
6 0.109050 0.159836 0.168993 0.193493 0.972075  0.000000 0.000000 0.000000 
1 -0.386299 0.551883 -0.088074 0.673648 2.181499  0.000000 0.000000 0.000000 
1 -0.338488 -0.411092 -0.021380 0.532514 4.023549  0.000000 0.000000 0.000000 
1 -0.693268 -0.183302 -0.019966 0.717092 3.400080  0.000000 0.000000 0.000000 
1 0.002155 0.005458 -0.115658 0.005868 1.194813  0.009789 -3.609643 0.000000 
1 0.059512 0.690826 -0.027951 0.693384 1.484862  0.005513 -0.090163 0.000000 
1 -0.381627 0.529984 -0.140423 0.653087 2.194868  -0.000000 0.000000 0.000000 
1 -0.285140 0.428080 -0.036794 0.514352 2.158400  0.000000 0.000000 0.000000 
1 0.018488 -0.046991 -0.202840 0.050497 5.087229  0.012072 0.743478 0.000000 
1 -0.871181 -0.117074 0.243322 0.879013 3.275178  0.000000 0.000000 0.000000 
1 -0.180168 0.219897 -0.159932 0.284280 2.257213  0.000000 0.000000 0.000000 
1 -0.179145 -0.400774 0.176892 0.438990 4.292033  -0.000000 0.000000 0.000000 
2 0.499847 0.606830 -0.056851 0.786187 0.881770  0.000000 0.000000 0.000000 
1 -0.344450 -0.251601 -0.198305 0.426555 3.772459  0.000000 0.000000 0.000000 
2 0.658387 -0.709196 -0.195383 0.967694 5.460651  0.000000 0.000000 0.000000 
1 -0.061548 0.146932 0.151302 0.159302 1.967481  -0.008782 -0.129177 0.000000 
1 -0.387543 -0.079855 -0.022155 0.395684 3.344803  0.000000 0.000000 0.000000 
2 0.720129 -0.190922 0.235021 0.745008 6.024026  0.000000 0.000000 0.000000 
1 0.083856 0.028984 -0.239746 0.088724 0.332783  0.076396 -0.268181 0.000000 
2 0.870070 0.221748 0.199760 0.897883 0.249549  0.000000 0.000000 0.000000 
1 0.079120 0.411648 -0.158100 0.419183 1.380908  0.015179 -0.184056 0.000000 
2 0.696550 0.347433 0.061396 0.778391 0.462680  0.000000 0.000000 0.000000 
1 -0.446945 0.114946 -0.045511 0.461489 2.889866  -0.000000 0.000000 0.000000 
1 -0.554812 -0.233194 0.167766 0.601827 3.539486  0.000000 0.000000 0.000000 
1 -0.094523 -0.178760 0.151613 0.202212 4.225989  -0.007765 0.066170 0.000000 
1 -0.070400 0.011077 0.231276 0.071266 2.985532  -0.021816 -0.004310 0.000000 
2 0.348788 -0.161846 -0.070882 0.384509 5.848730  0.000000 0.000000 0.000000 
2 0.744771 -0.534725 -0.198378 0.916851 5.660499  0.000000 0.000000 0.000000 
2 0.770991 -0.415037 -0.154114 0.875604 5.789357  0.000000 0.000000 0.000000 
2 0.400292 -0.837979 -0.205173 0.928678 5.158028  0.000000 0.000000 0.000000 
2 0.967968 0.028755 0.004399 0.968395 0.029698  0.000000 0.000000 0.000000 
1 -0.130989 -0.135201 -0.106405 0.188248 3.942811  0.000000 0.000000 0.000000 
2 0.255031 0.059528 0.124339 0.261886 0.229310  0.000000 0.000000 0.000000 
2 0.500787 -0.519846 -0.074747 0.721822 5.479116  0.000000 0.000000 0.000000 
1 -0.129048 -0.254277 0.026369 0.285149 4.242753  0.000000 0.000000 0.000000 
1 -0.620580 -0.729443 0.062030 0.957709 4.007455  0.000000 0.000000 0.000000 
2 0.432739 -0.010765 -0.245716 0.432873 6.258314  0.000000 0.000000 0.000000 
2 0.295219 0.212470 0.212710 0.363727 0.623827  0.000000 0.000000 0.000000 
1 -0.067448 0.255869 0.150512 0.264610 1.828538  -0.005432 -0.088875 0.000000 
1 -0.136177 0.126737 0.114851 0.186029 2.392084  -0.000000 0.000000 0.000000 
1 0.005415 -0.004390 0.099048 0.006971 5.601901  0.006466 5.057089 0.000000 
1 0.005299 0.010438 0.193172 0.011706 1.101005  0.009789 -3.609643 0.000000 
2 0.570219 -0.288834 -0.175885 0.639199 5.814326  0.000000 0.000000 0.000000 
1 -0.109407 0.666778 0.185026 0.675694 1.733430  0.000000 0.000000 0.000000 
2 0.259701 -0.482241 -0.172399 0.547723 5.206383  0.000000 0.000000 0.000000 
1 -0.213195 0.065322 -0.193544 0.222978 2.844280  -0.000000 0.000000 0.000000 
1 -0.835396 0.207515 0.022892 0.860784 2.898118  -0.000000 0.000000 0.000000 
1 -0.648622 0.559857 0.204756 0.856826 2.429515  0.000000 0.000000 0.000000 
2 0.364815 0.883775 -0.162932 0.956111 1.179311  0.000000 0.000000 0.000000 
2 0.214617 -0.122603 -0.069918 0.247168 5.764161  0.000000 0.000000 0.000000 
1 -0.469696 -0.416675 -0.066441 0.627880 3.867244  0.000000 0.000000 0.000000 
1 -0.517356 -0.005966 -0.060600 0.517391 3.153124  0.000000 0.000000 0.000000 