1
Atoms. Timestep: 0
0 0.000000 0.000000 0.000000 0.000000 0.000000  0.000000 0.000000 0.000000 
1
Atoms. Timestep: 1
0 0.000000 0.000000 0.000000 0.000000 0.000000  0.000000 0.000000 0.000000 
1
Atoms. Timestep: 2
0 0.000000 0.000000 0.000000 0.000000 0.000000  0.000000 0.000000 0.000000 
1
Atoms. Timestep: 3
0 0.000000 0.000000 0.000000 0.000000 0.000000  0.000000 0.000000 0.000000 
1
Atoms. Timestep: 4
0 0.000000 0.000000 0.000000 0.000000 0.000000  0.000000 0.000000 0.000000 
1
Atoms. Timestep: 5
0 0.000000 0.000000 0.000000 0.000000 0.000000  0.000000 0.000000 0.000000 
1
Atoms. Timestep: 6
0 0.000000 0.000000 0.000000 0.000000 0.000000  0.000000 0.000000 0.000000 
1
Atoms. Timestep: 7
0 0.000000 0.000000 0.000000 0.000000 0.000000  0.000000 0.000000 0.000000 
1
Atoms. Timestep: 8
0 0.000000 0.000000 0.000000 0.000000 0.000000  0.000000 0.000000 0.000000 
1
Atoms. Timestep: 9
0 0.000000 0.000000 0.000000 0.000000 0.000000  0.000000 0.000000 0.000000 
1
Atoms. Timestep: 10
0 0.000000 0.000000 0.000000 0.000000 0.000000  0.000000 0.000000 0.000000 
1
Atoms. Timestep: 11
0 0.000000 0.000000 0.000000 0.000000 0.000000  0.000000 0.000000 0.000000 
1
Atoms. Timestep: 12
0 0.000000 0.000000 0.000000 0.000000 0.000000  0.000000 0.000000 0.000000 
1
Atoms. Timestep: 13
0 0.000000 0.000000 0.000000 0.000000 0.000000  0.000000 0.000000 0.000000 
1
Atoms. Timestep: 14
0 0.000000 0.000000 0.000000 0.000000 0.000000  0.000000 0.000000 0.000000 
1
Atoms. Timestep: 15
0 0.000000 0.000000 0.000000 0.000000 0.000000  0.000000 0.000000 0.000000 
1
Atoms. Timestep: 16
0 0.000000 0.000000 0.000000 0.000000 0.000000  0.000000 0.000000 0.000000 
1
Atoms. Timestep: 17
0 0.000000 0.000000 0.000000 0.000000 0.000000  0.000000 0.000000 0.000000 
1
Atoms. Timestep: 18
0 0.000000 0.000000 0.000000 0.000000 0.000000  0.000000 0.000000 0.000000 
