1
Atoms. Timestep: 0
0 0.000000 0.000000 0.000000 0.000000 0.000000  0.000000 0.000000 0.000000 
1
Atoms. Timestep: 1
0 0.000000 0.000000 0.000000 0.000000 0.000000  0.000000 0.000000 0.000000 
1
Atoms. Timestep: 2
0 0.000000 0.000000 0.000000 0.000000 0.000000  0.000000 0.000000 0.000000 
1
Atoms. Timestep: 3
0 0.000000 0.000000 0.000000 0.000000 0.000000  0.000000 0.000000 0.000000 
1
Atoms. Timestep: 4
0 0.000000 0.000000 0.000000 0.000000 0.000000  0.000000 0.000000 0.000000 
1
Atoms. Timestep: 5
0 0.000000 0.000000 0.000000 0.000000 0.000000  0.000000 0.000000 0.000000 
1
Atoms. Timestep: 6
0 0.000000 0.000000 0.000000 0.000000 0.000000  0.000000 0.000000 0.000000 
1
Atoms. Timestep: 7
0 0.000000 0.000000 0.000000 0.000000 0.000000  0.000000 0.000000 0.000000 
1
Atoms. Timestep: 8
0 0.000000 0.000000 0.000000 0.000000 0.000000  0.000000 0.000000 0.000000 
1
Atoms. Timestep: 9
0 0.000000 0.000000 0.000000 0.000000 0.000000  0.000000 0.000000 0.000000 
1
Atoms. Timestep: 10
0 0.000000 0.000000 0.000000 0.000000 0.000000  0.000000 0.000000 0.000000 
1
Atoms. Timestep: 11
0 0.000000 0.000000 0.000000 0.000000 0.000000  0.000000 0.000000 0.000000 
1
Atoms. Timestep: 12
0 0.000000 0.000000 0.000000 0.000000 0.000000  0.000000 0.000000 0.000000 
1
Atoms. Timestep: 13
0 0.000000 0.000000 0.000000 0.000000 0.000000  0.000000 0.000000 0.000000 
1
Atoms. Timestep: 14
0 0.000000 0.000000 0.000000 0.000000 0.000000  0.000000 0.000000 0.000000 
1
Atoms. Timestep: 15
0 0.000000 0.000000 0.000000 0.000000 0.000000  0.000000 0.000000 0.000000 
1
Atoms. Timestep: 16
0 0.000000 0.000000 0.000000 0.000000 0.000000  0.000000 0.000000 0.000000 
1
Atoms. Timestep: 17
0 0.000000 0.000000 0.000000 0.000000 0.000000  0.000000 0.000000 0.000000 
1
Atoms. Timestep: 18
0 0.000000 0.000000 0.000000 0.000000 0.000000  0.000000 0.000000 0.000000 
1
Atoms. Timestep: 19
0 0.000000 0.000000 0.000000 0.000000 0.000000  0.000000 0.000000 0.000000 
1
Atoms. Timestep: 20
0 0.000000 0.000000 0.000000 0.000000 0.000000  0.000000 0.000000 0.000000 
1
Atoms. Timestep: 21
0 0.000000 0.000000 0.000000 0.000000 0.000000  0.000000 0.000000 0.000000 
1
Atoms. Timestep: 22
0 0.000000 0.000000 0.000000 0.000000 0.000000  0.000000 0.000000 0.000000 
1
Atoms. Timestep: 23
0 0.000000 0.000000 0.000000 0.000000 0.000000  0.000000 0.000000 0.000000 
1
Atoms. Timestep: 24
0 0.000000 0.000000 0.000000 0.000000 0.000000  0.000000 0.000000 0.000000 
1
Atoms. Timestep: 25
0 0.000000 0.000000 0.000000 0.000000 0.000000  0.000000 0.000000 0.000000 
1
Atoms. Timestep: 26
0 0.000000 0.000000 0.000000 0.000000 0.000000  0.000000 0.000000 0.000000 
1
Atoms. Timestep: 27
0 0.000000 0.000000 0.000000 0.000000 0.000000  0.000000 0.000000 0.000000 
1
Atoms. Timestep: 28
0 0.000000 0.000000 0.000000 0.000000 0.000000  0.000000 0.000000 0.000000 
1
Atoms. Timestep: 29
0 0.000000 0.000000 0.000000 0.000000 0.000000  0.000000 0.000000 0.000000 
1
Atoms. Timestep: 30
0 0.000000 0.000000 0.000000 0.000000 0.000000  0.000000 0.000000 0.000000 
1
Atoms. Timestep: 31
0 0.000000 0.000000 0.000000 0.000000 0.000000  0.000000 0.000000 0.000000 
1
Atoms. Timestep: 32
0 0.000000 0.000000 0.000000 0.000000 0.000000  0.000000 0.000000 0.000000 
1
Atoms. Timestep: 33
0 0.000000 0.000000 0.000000 0.000000 0.000000  0.000000 0.000000 0.000000 
1
Atoms. Timestep: 34
0 0.000000 0.000000 0.000000 0.000000 0.000000  0.000000 0.000000 0.000000 
1
Atoms. Timestep: 35
0 0.000000 0.000000 0.000000 0.000000 0.000000  0.000000 0.000000 0.000000 
1
Atoms. Timestep: 36
0 0.000000 0.000000 0.000000 0.000000 0.000000  0.000000 0.000000 0.000000 
1
Atoms. Timestep: 37
0 0.000000 0.000000 0.000000 0.000000 0.000000  0.000000 0.000000 0.000000 
1
Atoms. Timestep: 38
0 0.000000 0.000000 0.000000 0.000000 0.000000  0.000000 0.000000 0.000000 
1
Atoms. Timestep: 39
0 0.000000 0.000000 0.000000 0.000000 0.000000  0.000000 0.000000 0.000000 
1
Atoms. Timestep: 40
0 0.000000 0.000000 0.000000 0.000000 0.000000  0.000000 0.000000 0.000000 
1
Atoms. Timestep: 41
0 0.000000 0.000000 0.000000 0.000000 0.000000  0.000000 0.000000 0.000000 
1
Atoms. Timestep: 42
0 0.000000 0.000000 0.000000 0.000000 0.000000  0.000000 0.000000 0.000000 
1
Atoms. Timestep: 43
0 0.000000 0.000000 0.000000 0.000000 0.000000  0.000000 0.000000 0.000000 
1
Atoms. Timestep: 44
0 0.000000 0.000000 0.000000 0.000000 0.000000  0.000000 0.000000 0.000000 
1
Atoms. Timestep: 45
0 0.000000 0.000000 0.000000 0.000000 0.000000  0.000000 0.000000 0.000000 
1
Atoms. Timestep: 46
0 0.000000 0.000000 0.000000 0.000000 0.000000  0.000000 0.000000 0.000000 
1
Atoms. Timestep: 47
0 0.000000 0.000000 0.000000 0.000000 0.000000  0.000000 0.000000 0.000000 
1
Atoms. Timestep: 48
0 0.000000 0.000000 0.000000 0.000000 0.000000  0.000000 0.000000 0.000000 
1
Atoms. Timestep: 49
0 0.000000 0.000000 0.000000 0.000000 0.000000  0.000000 0.000000 0.000000 
1
Atoms. Timestep: 50
0 0.000000 0.000000 0.000000 0.000000 0.000000  0.000000 0.000000 0.000000 
1
Atoms. Timestep: 51
0 0.000000 0.000000 0.000000 0.000000 0.000000  0.000000 0.000000 0.000000 
1
Atoms. Timestep: 52
0 0.000000 0.000000 0.000000 0.000000 0.000000  0.000000 0.000000 0.000000 
1
Atoms. Timestep: 53
0 0.000000 0.000000 0.000000 0.000000 0.000000  0.000000 0.000000 0.000000 
1
Atoms. Timestep: 54
0 0.000000 0.000000 0.000000 0.000000 0.000000  0.000000 0.000000 0.000000 
1
Atoms. Timestep: 55
0 0.000000 0.000000 0.000000 0.000000 0.000000  0.000000 0.000000 0.000000 
1
Atoms. Timestep: 56
0 0.000000 0.000000 0.000000 0.000000 0.000000  0.000000 0.000000 0.000000 
1
Atoms. Timestep: 57
0 0.000000 0.000000 0.000000 0.000000 0.000000  0.000000 0.000000 0.000000 
1
Atoms. Timestep: 58
0 0.000000 0.000000 0.000000 0.000000 0.000000  0.000000 0.000000 0.000000 
1
Atoms. Timestep: 59
0 0.000000 0.000000 0.000000 0.000000 0.000000  0.000000 0.000000 0.000000 
1
Atoms. Timestep: 60
0 0.000000 0.000000 0.000000 0.000000 0.000000  0.000000 0.000000 0.000000 
1
Atoms. Timestep: 61
0 0.000000 0.000000 0.000000 0.000000 0.000000  0.000000 0.000000 0.000000 
1
Atoms. Timestep: 62
0 0.000000 0.000000 0.000000 0.000000 0.000000  0.000000 0.000000 0.000000 
1
Atoms. Timestep: 63
0 0.000000 0.000000 0.000000 0.000000 0.000000  0.000000 0.000000 0.000000 
1
Atoms. Timestep: 64
0 0.000000 0.000000 0.000000 0.000000 0.000000  0.000000 0.000000 0.000000 
1
Atoms. Timestep: 65
0 0.000000 0.000000 0.000000 0.000000 0.000000  0.000000 0.000000 0.000000 
1
Atoms. Timestep: 66
0 0.000000 0.000000 0.000000 0.000000 0.000000  0.000000 0.000000 0.000000 
1
Atoms. Timestep: 67
0 0.000000 0.000000 0.000000 0.000000 0.000000  0.000000 0.000000 0.000000 
1
Atoms. Timestep: 68
0 0.000000 0.000000 0.000000 0.000000 0.000000  0.000000 0.000000 0.000000 
1
Atoms. Timestep: 69
0 0.000000 0.000000 0.000000 0.000000 0.000000  0.000000 0.000000 0.000000 
1
Atoms. Timestep: 70
0 0.000000 0.000000 0.000000 0.000000 0.000000  0.000000 0.000000 0.000000 
1
Atoms. Timestep: 71
0 0.000000 0.000000 0.000000 0.000000 0.000000  0.000000 0.000000 0.000000 
1
Atoms. Timestep: 72
0 0.000000 0.000000 0.000000 0.000000 0.000000  0.000000 0.000000 0.000000 
1
Atoms. Timestep: 73
0 0.000000 0.000000 0.000000 0.000000 0.000000  0.000000 0.000000 0.000000 
1
Atoms. Timestep: 74
0 0.000000 0.000000 0.000000 0.000000 0.000000  0.000000 0.000000 0.000000 
1
Atoms. Timestep: 75
0 0.000000 0.000000 0.000000 0.000000 0.000000  0.000000 0.000000 0.000000 
1
Atoms. Timestep: 76
0 0.000000 0.000000 0.000000 0.000000 0.000000  0.000000 0.000000 0.000000 
1
Atoms. Timestep: 77
0 0.000000 0.000000 0.000000 0.000000 0.000000  0.000000 0.000000 0.000000 
1
Atoms. Timestep: 78
0 0.000000 0.000000 0.000000 0.000000 0.000000  0.000000 0.000000 0.000000 
1
Atoms. Timestep: 79
0 0.000000 0.000000 0.000000 0.000000 0.000000  0.000000 0.000000 0.000000 
1
Atoms. Timestep: 80
0 0.000000 0.000000 0.000000 0.000000 0.000000  0.000000 0.000000 0.000000 
1
Atoms. Timestep: 81
0 0.000000 0.000000 0.000000 0.000000 0.000000  0.000000 0.000000 0.000000 
1
Atoms. Timestep: 82
0 0.000000 0.000000 0.000000 0.000000 0.000000  0.000000 0.000000 0.000000 
1
Atoms. Timestep: 83
0 0.000000 0.000000 0.000000 0.000000 0.000000  0.000000 0.000000 0.000000 
1
Atoms. Timestep: 84
0 0.000000 0.000000 0.000000 0.000000 0.000000  0.000000 0.000000 0.000000 
1
Atoms. Timestep: 85
0 0.000000 0.000000 0.000000 0.000000 0.000000  0.000000 0.000000 0.000000 
1
Atoms. Timestep: 86
0 0.000000 0.000000 0.000000 0.000000 0.000000  0.000000 0.000000 0.000000 
1
Atoms. Timestep: 87
0 0.000000 0.000000 0.000000 0.000000 0.000000  0.000000 0.000000 0.000000 
1
Atoms. Timestep: 88
0 0.000000 0.000000 0.000000 0.000000 0.000000  0.000000 0.000000 0.000000 
1
Atoms. Timestep: 89
0 0.000000 0.000000 0.000000 0.000000 0.000000  0.000000 0.000000 0.000000 
1
Atoms. Timestep: 90
0 0.000000 0.000000 0.000000 0.000000 0.000000  0.000000 0.000000 0.000000 
1
Atoms. Timestep: 91
0 0.000000 0.000000 0.000000 0.000000 0.000000  0.000000 0.000000 0.000000 
1
Atoms. Timestep: 92
0 0.000000 0.000000 0.000000 0.000000 0.000000  0.000000 0.000000 0.000000 
1
Atoms. Timestep: 93
0 0.000000 0.000000 0.000000 0.000000 0.000000  0.000000 0.000000 0.000000 
1
Atoms. Timestep: 94
0 0.000000 0.000000 0.000000 0.000000 0.000000  0.000000 0.000000 0.000000 
1
Atoms. Timestep: 95
0 0.000000 0.000000 0.000000 0.000000 0.000000  0.000000 0.000000 0.000000 
1
Atoms. Timestep: 96
0 0.000000 0.000000 0.000000 0.000000 0.000000  0.000000 0.000000 0.000000 
1
Atoms. Timestep: 97
0 0.000000 0.000000 0.000000 0.000000 0.000000  0.000000 0.000000 0.000000 
1
Atoms. Timestep: 98
0 0.000000 0.000000 0.000000 0.000000 0.000000  0.000000 0.000000 0.000000 
1
Atoms. Timestep: 99
0 0.000000 0.000000 0.000000 0.000000 0.000000  0.000000 0.000000 0.000000 
1
Atoms. Timestep: 100
0 0.000000 0.000000 0.000000 0.000000 0.000000  0.000000 0.000000 0.000000 
1
Atoms. Timestep: 101
0 0.000000 0.000000 0.000000 0.000000 0.000000  0.000000 0.000000 0.000000 
1
Atoms. Timestep: 102
0 0.000000 0.000000 0.000000 0.000000 0.000000  0.000000 0.000000 0.000000 
1
Atoms. Timestep: 103
0 0.000000 0.000000 0.000000 0.000000 0.000000  0.000000 0.000000 0.000000 
1
Atoms. Timestep: 104
0 0.000000 0.000000 0.000000 0.000000 0.000000  0.000000 0.000000 0.000000 
1
Atoms. Timestep: 105
0 0.000000 0.000000 0.000000 0.000000 0.000000  0.000000 0.000000 0.000000 
1
Atoms. Timestep: 106
0 0.000000 0.000000 0.000000 0.000000 0.000000  0.000000 0.000000 0.000000 
1
Atoms. Timestep: 107
0 0.000000 0.000000 0.000000 0.000000 0.000000  0.000000 0.000000 0.000000 
1
Atoms. Timestep: 108
0 0.000000 0.000000 0.000000 0.000000 0.000000  0.000000 0.000000 0.000000 
1
Atoms. Timestep: 109
0 0.000000 0.000000 0.000000 0.000000 0.000000  0.000000 0.000000 0.000000 
1
Atoms. Timestep: 110
0 0.000000 0.000000 0.000000 0.000000 0.000000  0.000000 0.000000 0.000000 
1
Atoms. Timestep: 111
0 0.000000 0.000000 0.000000 0.000000 0.000000  0.000000 0.000000 0.000000 
1
Atoms. Timestep: 112
0 0.000000 0.000000 0.000000 0.000000 0.000000  0.000000 0.000000 0.000000 
1
Atoms. Timestep: 113
0 0.000000 0.000000 0.000000 0.000000 0.000000  0.000000 0.000000 0.000000 
1
Atoms. Timestep: 114
0 0.000000 0.000000 0.000000 0.000000 0.000000  0.000000 0.000000 0.000000 
1
Atoms. Timestep: 115
0 0.000000 0.000000 0.000000 0.000000 0.000000  0.000000 0.000000 0.000000 
1
Atoms. Timestep: 116
0 0.000000 0.000000 0.000000 0.000000 0.000000  0.000000 0.000000 0.000000 
1
Atoms. Timestep: 117
0 0.000000 0.000000 0.000000 0.000000 0.000000  0.000000 0.000000 0.000000 
1
Atoms. Timestep: 118
0 0.000000 0.000000 0.000000 0.000000 0.000000  0.000000 0.000000 0.000000 
1
Atoms. Timestep: 119
0 0.000000 0.000000 0.000000 0.000000 0.000000  0.000000 0.000000 0.000000 
