21
Atoms. Timestep: 0
0 0.000000 0.000000 0.000000 0.000000 0.000000  0.000000 0.000000 0.000000 
1 0.173239 -0.420670 0.141550 0.454944 5.103041  -0.000010 3.257254 0.000000 
1 -0.493257 0.777166 -0.151224 0.920483 2.136331  -0.000001 1.134808 0.000000 
1 -0.735931 -0.291084 -0.111113 0.791407 3.518241  -0.000001 1.417198 0.000000 
1 -0.376021 0.373021 0.064435 0.529657 2.360200  -0.000005 2.573961 0.000000 
1 0.502775 -0.251256 0.226115 0.562061 5.819748  -0.000004 2.382700 0.000000 
1 0.397671 0.541877 0.108648 0.672141 0.937694  -0.000002 1.811020 0.000000 
1 -0.004173 0.646258 -0.241850 0.646272 1.577254  -0.000003 1.930766 0.000000 
1 0.073461 0.211089 0.152088 0.223506 1.235895  -0.000176 9.491282 0.000000 
1 0.331491 0.320151 -0.185105 0.460850 0.767998  -0.000010 3.183200 0.000000 
1 -0.993223 -0.107576 -0.140872 0.999032 3.249482  -0.000000 1.005297 0.000000 
1 -0.271196 0.811062 0.056320 0.855201 1.893481  -0.000001 1.262964 0.000000 
1 -0.673777 -0.005161 0.012144 0.673797 3.149252  -0.000002 1.811020 0.000000 
1 0.157047 -0.962773 -0.103742 0.975498 4.874085  -0.000000 1.038073 0.000000 
1 -0.484527 0.307880 0.134957 0.574070 2.575532  -0.000004 2.295772 0.000000 
1 -0.563563 0.704755 -0.108343 0.902376 2.245329  -0.000001 1.161358 0.000000 
1 0.735982 0.377067 0.209513 0.826952 0.473465  -0.000001 1.327876 0.000000 
1 0.803957 0.514317 0.012998 0.954394 0.569123  -0.000001 1.072680 0.000000 
1 0.239149 -0.131652 0.081613 0.272991 5.779956  -0.000079 7.038117 0.000000 
1 0.403507 0.092633 -0.217914 0.414003 0.225659  -0.000015 3.768980 0.000000 
1 0.000607 0.511931 -0.218452 0.511931 1.569611  -0.000006 2.734860 0.000000 
21
Atoms. Timestep: 1
0 0.000000 0.000000 0.000000 0.000000 0.000000  0.000000 0.000000 0.000000 
1 0.208429 -0.404390 0.141550 0.454944 5.188292  -0.000020 3.257255 0.000000 
1 -0.516118 0.762175 -0.151224 0.920483 2.166032  -0.000001 1.134808 0.000000 
1 -0.724630 -0.318175 -0.111113 0.791407 3.555333  -0.000002 1.417198 0.000000 
1 -0.400279 0.346862 0.064435 0.529657 2.427568  -0.000011 2.573962 0.000000 
1 0.517456 -0.219433 0.226115 0.562061 5.882110  -0.000009 2.382700 0.000000 
1 0.371549 0.560111 0.108648 0.672140 0.985094  -0.000004 1.811020 0.000000 
1 -0.036812 0.645223 -0.241850 0.646272 1.627788  -0.000005 1.930766 0.000000 
1 0.019305 0.222664 0.152088 0.223499 1.484310  -0.000344 9.491430 0.000000 
1 0.303699 0.346626 -0.185105 0.460849 0.851311  -0.000019 3.183202 0.000000 
1 -0.990049 -0.133669 -0.140872 0.999032 3.275794  -0.000000 1.005297 0.000000 
1 -0.297853 0.801656 0.056320 0.855201 1.926536  -0.000002 1.262964 0.000000 
1 -0.672776 -0.037080 0.012144 0.673797 3.196652  -0.000004 1.811020 0.000000 
1 0.183144 -0.958151 -0.103742 0.975497 4.901254  -0.000001 1.038073 0.000000 
1 -0.502141 0.278229 0.134957 0.574070 2.635619  -0.000008 2.295772 0.000000 
1 -0.584721 0.687302 -0.108343 0.902376 2.275725  -0.000001 1.161358 0.000000 
1 0.722436 0.402413 0.209513 0.826952 0.508219  -0.000002 1.327876 0.000000 
1 0.789202 0.536682 0.012998 0.954394 0.597198  -0.000001 1.072680 0.000000 
1 0.259214 -0.085619 0.081613 0.272988 5.964164  -0.000156 7.038157 0.000000 
1 0.392422 0.131922 -0.217914 0.414003 0.324304  -0.000030 3.768983 0.000000 
1 -0.036007 0.510663 -0.218452 0.511931 1.641190  -0.000013 2.734861 0.000000 
21
Atoms. Timestep: 2
0 0.000000 0.000000 0.000000 0.000000 0.000000  0.000000 0.000000 0.000000 
1 0.242288 -0.385058 0.141550 0.454943 5.274020  -0.000030 3.257258 0.000000 
1 -0.538649 0.746422 -0.151224 0.920483 2.195899  -0.000002 1.134808 0.000000 
1 -0.712261 -0.344976 -0.111113 0.791407 3.592633  -0.000003 1.417198 0.000000 
1 -0.422840 0.318971 0.064435 0.529657 2.495312  -0.000016 2.573962 0.000000 
1 0.530191 -0.186573 0.226115 0.562060 5.944820  -0.000013 2.382701 0.000000 
1 0.344440 0.577177 0.108648 0.672140 1.032758  -0.000006 1.811020 0.000000 
1 -0.069538 0.642520 -0.241850 0.646272 1.678604  -0.000007 1.930766 0.000000 
1 -0.036339 0.220514 0.152088 0.223488 1.734120  -0.000493 9.491668 0.000000 
1 0.273627 0.370823 -0.185105 0.460849 0.935090  -0.000028 3.183204 0.000000 
1 -0.986167 -0.159814 -0.140872 0.999032 3.302252  -0.000000 1.005297 0.000000 
1 -0.324331 0.791314 0.056320 0.855201 1.959776  -0.000002 1.262964 0.000000 
1 -0.670245 -0.069093 0.012144 0.673797 3.244316  -0.000006 1.811020 0.000000 
1 0.209250 -0.952790 -0.103742 0.975497 4.928575  -0.000001 1.038073 0.000000 
1 -0.518025 0.247399 0.134957 0.574070 2.696042  -0.000012 2.295773 0.000000 
1 -0.605453 0.669111 -0.108343 0.902376 2.306291  -0.000002 1.161358 0.000000 
1 0.707934 0.427410 0.209513 0.826952 0.543167  -0.000003 1.327876 0.000000 
1 0.773738 0.558746 0.012998 0.954394 0.625430  -0.000002 1.072680 0.000000 
1 0.270544 -0.036412 0.081613 0.272983 6.149403  -0.000229 7.038223 0.000000 
1 0.377427 0.170136 -0.217914 0.414002 0.423501  -0.000044 3.768987 0.000000 
1 -0.072639 0.506751 -0.218452 0.511931 1.713169  -0.000019 2.734862 0.000000 
21
Atoms. Timestep: 3
0 0.000000 0.000000 0.000000 0.000000 0.000000  0.000000 0.000000 0.000000 
1 0.274307 -0.362944 0.141550 0.454943 5.359580  -0.000040 3.257261 0.000000 
1 -0.560656 0.730036 -0.151224 0.920482 2.225708  -0.000002 1.134808 0.000000 
1 -0.698928 -0.371245 -0.111113 0.791406 3.629859  -0.000004 1.417198 0.000000 
1 -0.443424 0.289674 0.064435 0.529656 2.562924  -0.000021 2.573964 0.000000 
1 0.540822 -0.153046 0.226115 0.562060 6.007408  -0.000017 2.382701 0.000000 
1 0.316604 0.592903 0.108648 0.672140 1.080329  -0.000008 1.811020 0.000000 
1 -0.102021 0.638168 -0.241850 0.646271 1.729320  -0.000010 1.930767 0.000000 
1 -0.089622 0.204716 0.152088 0.223474 1.983448  -0.000612 9.491982 0.000000 
1 0.241700 0.392380 -0.185105 0.460848 1.018705  -0.000037 3.183207 0.000000 
1 -0.981603 -0.185797 -0.140872 0.999032 3.328659  -0.000000 1.005297 0.000000 
1 -0.350399 0.780121 0.056320 0.855201 1.992951  -0.000003 1.262964 0.000000 
1 -0.666201 -0.100887 0.012144 0.673797 3.291887  -0.000008 1.811020 0.000000 
1 0.235150 -0.946731 -0.103742 0.975497 4.955843  -0.000002 1.038073 0.000000 
1 -0.531994 0.215728 0.134957 0.574070 2.756346  -0.000016 2.295774 0.000000 
1 -0.625580 0.650333 -0.108343 0.902376 2.336797  -0.000003 1.161358 0.000000 
1 0.692598 0.451838 0.209513 0.826952 0.578047  -0.000004 1.327876 0.000000 
1 0.757690 0.580323 0.012998 0.954394 0.653607  -0.000002 1.072680 0.000000 
1 0.272620 0.013942 0.081613 0.272976 0.051096  -0.000293 7.038313 0.000000 
1 0.358762 0.206607 -0.217914 0.414001 0.522503  -0.000058 3.768994 0.000000 
1 -0.108824 0.500230 -0.218452 0.511930 1.785007  -0.000025 2.734863 0.000000 
21
Atoms. Timestep: 4
0 0.000000 0.000000 0.000000 0.000000 0.000000  0.000000 0.000000 0.000000 
1 0.304341 -0.338154 0.141550 0.454941 5.445207  -0.000049 3.257265 0.000000 
1 -0.582181 0.712989 -0.151224 0.920482 2.255540  -0.000003 1.134808 0.000000 
1 -0.684616 -0.397020 -0.111113 0.791406 3.667114  -0.000005 1.417198 0.000000 
1 -0.461994 0.259030 0.064435 0.529656 2.630588  -0.000027 2.573965 0.000000 
1 0.549341 -0.118893 0.226115 0.562059 6.070044  -0.000022 2.382702 0.000000 
1 0.288028 0.607299 0.108648 0.672140 1.127937  -0.000010 1.811020 0.000000 
1 -0.134266 0.632170 -0.241850 0.646271 1.780076  -0.000012 1.930767 0.000000 
1 -0.137390 0.176230 0.152088 0.223457 2.232978  -0.000694 9.492354 0.000000 
1 0.208058 0.411208 -0.185105 0.460847 1.102385  -0.000046 3.183211 0.000000 
1 -0.976351 -0.211670 -0.140872 0.999032 3.355086  -0.000000 1.005297 0.000000 
1 -0.376102 0.768060 0.056320 0.855201 2.026152  -0.000004 1.262964 0.000000 
1 -0.660645 -0.132477 0.012144 0.673796 3.339495  -0.000010 1.811020 0.000000 
1 0.260894 -0.939962 -0.103742 0.975497 4.983132  -0.000002 1.038073 0.000000 
1 -0.544036 0.183249 0.134957 0.574069 2.816697  -0.000020 2.295774 0.000000 
1 -0.645140 0.630934 -0.108343 0.902376 2.367326  -0.000003 1.161358 0.000000 
1 0.676407 0.475734 0.209513 0.826952 0.612955  -0.000005 1.327877 0.000000 
1 0.741026 0.601455 0.012998 0.954394 0.681805  -0.000003 1.072680 0.000000 
1 0.265394 0.063856 0.081613 0.272968 0.236120  -0.000349 7.038423 0.000000 
1 0.336564 0.241081 -0.217914 0.413999 0.621582  -0.000072 3.769001 0.000000 
1 -0.144476 0.491120 -0.218452 0.511929 1.856901  -0.000031 2.734865 0.000000 
21
Atoms. Timestep: 5
0 0.000000 0.000000 0.000000 0.000000 0.000000  0.000000 0.000000 0.000000 
1 0.332221 -0.310805 0.141550 0.454940 5.531079  -0.000058 3.257270 0.000000 
1 -0.603248 0.695255 -0.151224 0.920482 2.285457  -0.000004 1.134808 0.000000 
1 -0.669308 -0.422316 -0.111113 0.791406 3.704476  -0.000007 1.417198 0.000000 
1 -0.478494 0.227108 0.064435 0.529655 2.698446  -0.000032 2.573967 0.000000 
1 0.555720 -0.084174 0.226115 0.562059 6.132860  -0.000026 2.382704 0.000000 
1 0.258716 0.620353 0.108648 0.672140 1.175681  -0.000013 1.811021 0.000000 
1 -0.166257 0.624520 -0.241850 0.646271 1.830977  -0.000015 1.930768 0.000000 
1 -0.176739 0.136704 0.152088 0.223438 2.483233  -0.000733 9.492761 0.000000 
1 0.172857 0.427199 -0.185105 0.460846 1.186305  -0.000055 3.183215 0.000000 
1 -0.970399 -0.237469 -0.140872 0.999032 3.381589  -0.000000 1.005297 0.000000 
1 -0.401462 0.755114 0.056320 0.855201 2.059448  -0.000005 1.262964 0.000000 
1 -0.653569 -0.163856 0.012144 0.673796 3.387240  -0.000013 1.811021 0.000000 
1 0.286517 -0.932471 -0.103742 0.975497 5.010499  -0.000002 1.038073 0.000000 
1 -0.554124 0.150006 0.134957 0.574069 2.877221  -0.000023 2.295776 0.000000 
1 -0.664152 0.610889 -0.108343 0.902376 2.397944  -0.000004 1.161358 0.000000 
1 0.659342 0.499117 0.209513 0.826952 0.647962  -0.000006 1.327877 0.000000 
1 0.723723 0.622168 0.012998 0.954394 0.710085  -0.000003 1.072680 0.000000 
1 0.249048 0.111720 0.081613 0.272958 0.421678  -0.000393 7.038551 0.000000 
1 0.310987 0.273277 -0.217914 0.413997 0.720945  -0.000085 3.769011 0.000000 
1 -0.179479 0.479435 -0.218452 0.511929 1.929001  -0.000037 2.734868 0.000000 
21
Atoms. Timestep: 6
0 0.000000 0.000000 0.000000 0.000000 0.000000  0.000000 0.000000 0.000000 
1 0.357745 -0.281047 0.141550 0.454938 5.617283  -0.000067 3.257276 0.000000 
1 -0.623853 0.676827 -0.151224 0.920482 2.315489  -0.000004 1.134808 0.000000 
1 -0.653001 -0.447116 -0.111113 0.791406 3.741982  -0.000008 1.417198 0.000000 
1 -0.492842 0.194011 0.064435 0.529654 2.766566  -0.000037 2.573969 0.000000 
1 0.559919 -0.048987 0.226115 0.562058 6.195918  -0.000030 2.382705 0.000000 
1 0.228698 0.632035 0.108648 0.672139 1.223610  -0.000015 1.811021 0.000000 
1 -0.197937 0.615212 -0.241850 0.646270 1.882075  -0.000017 1.930768 0.000000 
1 -0.205157 0.088468 0.152088 0.223419 2.734464  -0.000726 9.493179 0.000000 
1 0.136298 0.440227 -0.185105 0.460844 1.270549  -0.000063 3.183221 0.000000 
1 -0.963738 -0.263200 -0.140872 0.999032 3.408194  -0.000000 1.005297 0.000000 
1 -0.426472 0.741276 0.056320 0.855200 2.092872  -0.000006 1.262964 0.000000 
1 -0.644968 -0.194981 0.012144 0.673796 3.435168  -0.000015 1.811021 0.000000 
1 0.312023 -0.924249 -0.103742 0.975497 5.037971  -0.000002 1.038073 0.000000 
1 -0.562209 0.116082 0.134957 0.574068 2.937979  -0.000027 2.295777 0.000000 
1 -0.682611 0.590191 -0.108343 0.902376 2.428679  -0.000004 1.161358 0.000000 
1 0.641398 0.521975 0.209513 0.826951 0.683104  -0.000006 1.327877 0.000000 
1 0.705772 0.642460 0.012998 0.954394 0.738473  -0.000004 1.072681 0.000000 
1 0.224040 0.155905 0.081613 0.272948 0.607955  -0.000424 7.038692 0.000000 
1 0.282226 0.302886 -0.217914 0.413994 0.820692  -0.000097 3.769022 0.000000 
1 -0.213679 0.465200 -0.218452 0.511928 2.001380  -0.000043 2.734870 0.000000 
21
Atoms. Timestep: 7
0 0.000000 0.000000 0.000000 0.000000 0.000000  0.000000 0.000000 0.000000 
1 0.380603 -0.249216 0.141550 0.454936 5.703449  -0.000076 3.257283 0.000000 
1 -0.643887 0.657797 -0.151224 0.920482 2.345509  -0.000005 1.134808 0.000000 
1 -0.635784 -0.471277 -0.111113 0.791406 3.779472  -0.000009 1.417199 0.000000 
1 -0.504899 0.160029 0.064435 0.529653 2.834657  -0.000041 2.573972 0.000000 
1 0.561892 -0.013621 0.226115 0.562057 6.258949  -0.000034 2.382707 0.000000 
1 0.198167 0.642262 0.108648 0.672139 1.271518  -0.000017 1.811022 0.000000 
1 -0.229088 0.604304 -0.241850 0.646270 1.933151  -0.000020 1.930769 0.000000 
1 -0.220689 0.034708 0.152088 0.223401 2.985597  -0.000672 9.493579 0.000000 
1 0.098788 0.450129 -0.185105 0.460842 1.354756  -0.000071 3.183227 0.000000 
1 -0.956399 -0.288733 -0.140872 0.999032 3.434788  -0.000000 1.005297 0.000000 
1 -0.450995 0.726616 0.056320 0.855200 2.126282  -0.000006 1.262964 0.000000 
1 -0.634890 -0.225644 0.012144 0.673795 3.483076  -0.000017 1.811022 0.000000 
1 0.337283 -0.915333 -0.103742 0.975497 5.065432  -0.000003 1.038073 0.000000 
1 -0.568217 0.081745 0.134957 0.574067 2.998710  -0.000031 2.295778 0.000000 
1 -0.700418 0.568944 -0.108343 0.902376 2.459401  -0.000005 1.161358 0.000000 
1 0.622670 0.544178 0.209513 0.826951 0.718231  -0.000007 1.327877 0.000000 
1 0.687259 0.662225 0.012998 0.954394 0.766849  -0.000004 1.072681 0.000000 
1 0.191298 0.194678 0.081613 0.272936 0.794155  -0.000440 7.038841 0.000000 
1 0.250674 0.329472 -0.217914 0.413992 0.920396  -0.000109 3.769034 0.000000 
1 -0.246746 0.448537 -0.218452 0.511926 2.073727  -0.000048 2.734874 0.000000 
21
Atoms. Timestep: 8
0 0.000000 0.000000 0.000000 0.000000 0.000000  0.000000 0.000000 0.000000 
1 0.400606 -0.215593 0.141550 0.454934 5.789472  -0.000083 3.257291 0.000000 
1 -0.663309 0.638207 -0.151224 0.920482 2.375478  -0.000005 1.134808 0.000000 
1 -0.617704 -0.494737 -0.111113 0.791405 3.816899  -0.000010 1.417199 0.000000 
1 -0.514602 0.125364 0.064435 0.529652 2.902633  -0.000046 2.573974 0.000000 
1 0.561636 0.021740 0.226115 0.562056 0.038689  -0.000038 2.382709 0.000000 
1 0.167234 0.651001 0.108648 0.672138 1.319346  -0.000019 1.811023 0.000000 
1 -0.259590 0.591842 -0.241850 0.646269 1.984141  -0.000022 1.930770 0.000000 
1 -0.222384 -0.021129 0.152088 0.223385 3.236320  -0.000573 9.493935 0.000000 
1 0.060642 0.456833 -0.185105 0.460840 1.438823  -0.000079 3.183234 0.000000 
1 -0.948397 -0.314019 -0.140872 0.999032 3.461337  -0.000000 1.005297 0.000000 
1 -0.474975 0.711172 0.056320 0.855200 2.159636  -0.000007 1.262964 0.000000 
1 -0.623375 -0.255740 0.012144 0.673795 3.530904  -0.000019 1.811023 0.000000 
1 0.362246 -0.905744 -0.103742 0.975497 5.092847  -0.000003 1.038073 0.000000 
1 -0.572125 0.047165 0.134957 0.574066 3.059340  -0.000034 2.295780 0.000000 
1 -0.717535 0.547198 -0.108343 0.902376 2.490071  -0.000006 1.161358 0.000000 
1 0.603208 0.565675 0.209513 0.826951 0.753299  -0.000008 1.327877 0.000000 
1 0.668226 0.681426 0.012998 0.954394 0.795178  -0.000005 1.072681 0.000000 
1 0.152015 0.226670 0.081613 0.272925 0.980047  -0.000442 7.038993 0.000000 
1 0.216691 0.352749 -0.217914 0.413989 1.019933  -0.000119 3.769048 0.000000 
1 -0.278470 0.429560 -0.218452 0.511925 2.145952  -0.000054 2.734877 0.000000 
21
Atoms. Timestep: 9
0 0.000000 0.000000 0.000000 0.000000 0.000000  0.000000 0.000000 0.000000 
1 0.417639 -0.180390 0.141550 0.454932 5.875462  -0.000091 3.257299 0.000000 
1 -0.682128 0.618052 -0.151224 0.920482 2.405437  -0.000006 1.134808 0.000000 
1 -0.598766 -0.517495 -0.111113 0.791405 3.854312  -0.000011 1.417199 0.000000 
1 -0.521925 0.090134 0.064435 0.529650 2.970584  -0.000051 2.573978 0.000000 
1 0.559157 0.057002 0.226115 0.562055 0.101591  -0.000042 2.382711 0.000000 
1 0.135931 0.658249 0.108648 0.672138 1.367155  -0.000021 1.811023 0.000000 
1 -0.289406 0.577847 -0.241850 0.646269 2.035112  -0.000024 1.930771 0.000000 
1 -0.210183 -0.075620 0.152088 0.223372 3.486956  -0.000432 9.494221 0.000000 
1 0.022083 0.460309 -0.185105 0.460838 1.522858  -0.000086 3.183241 0.000000 
1 -0.939730 -0.339076 -0.140872 0.999032 3.487876  -0.000000 1.005297 0.000000 
1 -0.498418 0.694943 0.056320 0.855200 2.192977  -0.000008 1.262965 0.000000 
1 -0.610440 -0.285239 0.012144 0.673794 3.578713  -0.000021 1.811023 0.000000 
1 0.386929 -0.895478 -0.103742 0.975497 5.120251  -0.000003 1.038073 0.000000 
1 -0.573931 0.012425 0.134957 0.574065 3.119947  -0.000038 2.295782 0.000000 
1 -0.733972 0.524945 -0.108343 0.902376 2.520730  -0.000006 1.161358 0.000000 
1 0.583012 0.586468 0.209513 0.826951 0.788354  -0.000009 1.327877 0.000000 
1 0.648664 0.700073 0.012998 0.954394 0.823496  -0.000005 1.072681 0.000000 
1 0.107514 0.250844 0.081613 0.272913 1.165873  -0.000427 7.039143 0.000000 
1 0.180577 0.372526 -0.217914 0.413985 1.119434  -0.000129 3.769063 0.000000 
1 -0.308730 0.408352 -0.218452 0.511924 2.218151  -0.000059 2.734881 0.000000 
21
Atoms. Timestep: 10
0 0.000000 0.000000 0.000000 0.000000 0.000000  0.000000 0.000000 0.000000 
1 0.431613 -0.143775 0.141550 0.454930 5.961636  -0.000097 3.257308 0.000000 
1 -0.700373 0.597298 -0.151224 0.920482 2.435459  -0.000007 1.134808 0.000000 
1 -0.578947 -0.539575 -0.111113 0.791405 3.891805  -0.000012 1.417199 0.000000 
1 -0.526847 0.054411 0.064435 0.529649 3.038680  -0.000055 2.573981 0.000000 
1 0.554455 0.092112 0.226115 0.562054 0.164627  -0.000045 2.382714 0.000000 
1 0.104249 0.664003 0.108648 0.672137 1.415067  -0.000022 1.811024 0.000000 
1 -0.318532 0.562317 -0.241850 0.646268 2.086191  -0.000026 1.930772 0.000000 
1 -0.184785 -0.125482 0.152088 0.223363 3.738134  -0.000264 9.494420 0.000000 
1 -0.016714 0.460532 -0.185105 0.460836 1.607073  -0.000092 3.183249 0.000000 
1 -0.930381 -0.363945 -0.140872 0.999032 3.514472  -0.000000 1.005297 0.000000 
1 -0.521355 0.677905 0.056320 0.855200 2.226390  -0.000009 1.262965 0.000000 
1 -0.596078 -0.314148 0.012144 0.673794 3.626625  -0.000022 1.811024 0.000000 
1 0.411372 -0.884515 -0.103742 0.975497 5.147714  -0.000004 1.038073 0.000000 
1 -0.573626 -0.022435 0.134957 0.574064 3.180683  -0.000041 2.295784 0.000000 
1 -0.749751 0.502150 -0.108343 0.902375 2.551455  -0.000007 1.161358 0.000000 
1 0.562053 0.606583 0.209513 0.826951 0.823484  -0.000010 1.327878 0.000000 
1 0.628539 0.718197 0.012998 0.954394 0.851874  -0.000005 1.072681 0.000000 
1 0.059208 0.266402 0.081613 0.272903 1.352100  -0.000398 7.039285 0.000000 
1 0.142595 0.388649 -0.217914 0.413982 1.219147  -0.000137 3.769079 0.000000 
1 -0.337441 0.384964 -0.218452 0.511922 2.290504  -0.000064 2.734886 0.000000 
21
Atoms. Timestep: 11
0 0.000000 0.000000 0.000000 0.000000 0.000000  0.000000 0.000000 0.000000 
1 0.442404 -0.106006 0.141550 0.454927 6.048005  -0.000103 3.257317 0.000000 
1 -0.718025 0.575956 -0.151224 0.920481 2.465548  -0.000007 1.134808 0.000000 
1 -0.558267 -0.560945 -0.111113 0.791405 3.929383  -0.000013 1.417200 0.000000 
1 -0.529329 0.018355 0.064435 0.529648 3.106931  -0.000059 2.573985 0.000000 
1 0.547532 0.126934 0.226115 0.562053 0.227806  -0.000049 2.382717 0.000000 
1 0.072256 0.668242 0.108648 0.672137 1.463087  -0.000024 1.811025 0.000000 
1 -0.346889 0.545279 -0.241850 0.646267 2.137386  -0.000029 1.930773 0.000000 
1 -0.147700 -0.167553 0.152088 0.223359 3.989882  -0.000068 9.494515 0.000000 
1 -0.055479 0.457481 -0.185105 0.460833 1.691478  -0.000098 3.183258 0.000000 
1 -0.920350 -0.388613 -0.140872 0.999032 3.541127  -0.000000 1.005297 0.000000 
1 -0.543760 0.660069 0.056320 0.855199 2.259878  -0.000010 1.262965 0.000000 
1 -0.580311 -0.342398 0.012144 0.673793 3.674645  -0.000024 1.811025 0.000000 
1 0.435559 -0.872859 -0.103742 0.975497 5.175239  -0.000004 1.038073 0.000000 
1 -0.571197 -0.057290 0.134957 0.574063 3.241557  -0.000044 2.295786 0.000000 
1 -0.764856 0.478828 -0.108343 0.902375 2.582249  -0.000008 1.161358 0.000000 
1 0.540352 0.625992 0.209513 0.826950 0.858693  -0.000011 1.327878 0.000000 
1 0.607860 0.735781 0.012998 0.954393 0.880317  -0.000006 1.072681 0.000000 
1 0.008744 0.272753 0.081613 0.272893 1.538751  -0.000353 7.039415 0.000000 
1 0.103106 0.400933 -0.217914 0.413978 1.319086  -0.000144 3.769096 0.000000 
1 -0.364445 0.359503 -0.218452 0.511920 2.363021  -0.000068 2.734890 0.000000 
21
Atoms. Timestep: 12
0 0.000000 0.000000 0.000000 0.000000 0.000000  0.000000 0.000000 0.000000 
1 0.449880 -0.067560 0.141550 0.454924 6.134127  -0.000109 3.257327 0.000000 
1 -0.734980 0.554157 -0.151224 0.920481 2.495552  -0.000008 1.134809 0.000000 
1 -0.536862 -0.581464 -0.111113 0.791404 3.966853  -0.000014 1.417200 0.000000 
1 -0.529351 -0.017683 0.064435 0.529646 3.174986  -0.000063 2.573988 0.000000 
1 0.538453 0.161153 0.226115 0.562051 0.290804  -0.000052 2.382719 0.000000 
1 0.040188 0.670933 0.108648 0.672136 1.510970  -0.000026 1.811026 0.000000 
1 -0.374261 0.526868 -0.241850 0.646267 2.188435  -0.000031 1.930774 0.000000 
1 -0.101451 -0.198991 0.152088 0.223360 4.240912  0.000138 9.494494 0.000000 
1 -0.093740 0.451196 -0.185105 0.460831 1.775642  -0.000103 3.183267 0.000000 
1 -0.909697 -0.412936 -0.140872 0.999032 3.567707  -0.000000 1.005297 0.000000 
1 -0.565494 0.641547 0.056320 0.855199 2.293270  -0.000010 1.262965 0.000000 
1 -0.563257 -0.369781 0.012144 0.673792 3.722528  -0.000026 1.811026 0.000000 
1 0.459349 -0.860577 -0.103742 0.975497 5.202685  -0.000004 1.038073 0.000000 
1 -0.566669 -0.091835 0.134957 0.574062 3.302256  -0.000047 2.295789 0.000000 
1 -0.779196 0.455120 -0.108343 0.902375 2.612954  -0.000008 1.161359 0.000000 
1 0.518046 0.644573 0.209513 0.826950 0.893801  -0.000012 1.327878 0.000000 
1 0.586750 0.752722 0.012998 0.954393 0.908678  -0.000006 1.072681 0.000000 
1 -0.041878 0.269652 0.081613 0.272884 1.724871  -0.000294 7.039527 0.000000 
1 0.062706 0.409198 -0.217914 0.413974 1.418739  -0.000149 3.769114 0.000000 
1 -0.389464 0.332232 -0.218452 0.511918 2.435330  -0.000072 2.734895 0.000000 
21
Atoms. Timestep: 13
0 0.000000 0.000000 0.000000 0.000000 0.000000  0.000000 0.000000 0.000000 
1 0.454017 -0.028666 0.141550 0.454921 6.220130  -0.000113 3.257338 0.000000 
1 -0.751252 0.531890 -0.151224 0.920481 2.525515  -0.000008 1.134809 0.000000 
1 -0.514733 -0.601141 -0.111113 0.791404 4.004271  -0.000015 1.417200 0.000000 
1 -0.526926 -0.053590 0.064435 0.529644 3.242947  -0.000066 2.573993 0.000000 
1 0.527255 0.194686 0.226115 0.562050 0.353715  -0.000055 2.382722 0.000000 
1 0.008072 0.672087 0.108648 0.672135 1.558786  -0.000028 1.811027 0.000000 
1 -0.400621 0.507111 -0.241850 0.646266 2.239414  -0.000033 1.930775 0.000000 
1 -0.048919 -0.217944 0.152088 0.223366 4.491593  0.000341 9.494355 0.000000 
1 -0.131286 0.441731 -0.185105 0.460828 1.859690  -0.000108 3.183277 0.000000 
1 -0.898418 -0.436933 -0.140872 0.999032 3.594250  -0.000000 1.005297 0.000000 
1 -0.586569 0.622336 0.056320 0.855199 2.326616  -0.000011 1.262965 0.000000 
1 -0.544937 -0.396281 0.012144 0.673792 3.770345  -0.000028 1.811027 0.000000 
1 0.482760 -0.847665 -0.103742 0.975497 5.230093  -0.000004 1.038073 0.000000 
1 -0.560064 -0.125994 0.134957 0.574061 3.362872  -0.000050 2.295791 0.000000 
1 -0.792783 0.431017 -0.108343 0.902375 2.643618  -0.000009 1.161359 0.000000 
1 0.495133 0.662336 0.209513 0.826950 0.928862  -0.000013 1.327878 0.000000 
1 0.565199 0.769036 0.012998 0.954393 0.937000  -0.000006 1.072681 0.000000 
1 -0.090986 0.257262 0.081613 0.272877 1.910737  -0.000225 7.039616 0.000000 
1 0.021740 0.413399 -0.217914 0.413970 1.518255  -0.000153 3.769132 0.000000 
1 -0.412417 0.303267 -0.218452 0.511916 2.507540  -0.000076 2.734901 0.000000 
21
Atoms. Timestep: 14
0 0.000000 0.000000 0.000000 0.000000 0.000000  0.000000 0.000000 0.000000 
1 0.454798 0.010435 0.141550 0.454918 0.022940  -0.000117 3.257349 0.000000 
1 -0.766847 0.509147 -0.151224 0.920481 2.555474  -0.000009 1.134809 0.000000 
1 -0.491886 -0.619974 -0.111113 0.791403 4.041686  -0.000016 1.417201 0.000000 
1 -0.522069 -0.089245 0.064435 0.529642 3.310901  -0.000069 2.573997 0.000000 
1 0.513972 0.227445 0.226115 0.562049 0.416620  -0.000058 2.382726 0.000000 
1 -0.024058 0.671704 0.108648 0.672134 1.606598  -0.000030 1.811028 0.000000 
1 -0.425938 0.486040 -0.241850 0.646265 2.290387  -0.000035 1.930777 0.000000 
1 0.006668 -0.223278 0.152088 0.223378 4.742244  0.000529 9.494104 0.000000 
1 -0.167901 0.429149 -0.185105 0.460825 1.943730  -0.000111 3.183287 0.000000 
1 -0.886506 -0.460621 -0.140872 0.999032 3.620790  -0.000000 1.005297 0.000000 
1 -0.606989 0.602436 0.056320 0.855199 2.359959  -0.000012 1.262965 0.000000 
1 -0.525374 -0.421872 0.012144 0.673791 3.818156  -0.000030 1.811028 0.000000 
1 0.505807 -0.834118 -0.103742 0.975497 5.257499  -0.000005 1.038074 0.000000 
1 -0.551402 -0.159687 0.134957 0.574059 3.423482  -0.000053 2.295794 0.000000 
1 -0.805623 0.406511 -0.108343 0.902375 2.674278  -0.000009 1.161359 0.000000 
1 0.471614 0.679283 0.209513 0.826949 0.963918  -0.000013 1.327879 0.000000 
1 0.543197 0.784731 0.012998 0.954393 0.965319  -0.000006 1.072681 0.000000 
1 -0.136954 0.236015 0.081613 0.272873 2.096587  -0.000145 7.039680 0.000000 
1 -0.019435 0.413510 -0.217914 0.413966 1.617762  -0.000156 3.769151 0.000000 
1 -0.433218 0.272724 -0.218452 0.511914 2.579742  -0.000080 2.734906 0.000000 
21
Atoms. Timestep: 15
0 0.000000 0.000000 0.000000 0.000000 0.000000  0.000000 0.000000 0.000000 
1 0.452214 0.049503 0.141550 0.454915 0.109033  -0.000120 3.257360 0.000000 
1 -0.781771 0.485921 -0.151224 0.920481 2.585468  -0.000009 1.134809 0.000000 
1 -0.468324 -0.637959 -0.111113 0.791403 4.079143  -0.000017 1.417201 0.000000 
1 -0.514793 -0.124528 0.064435 0.529641 3.378933  -0.000072 2.574001 0.000000 
1 0.498638 0.259340 0.226115 0.562047 0.479596  -0.000061 2.382729 0.000000 
1 -0.056170 0.669782 0.108648 0.672134 1.654464  -0.000031 1.811029 0.000000 
1 -0.450175 0.463680 -0.241850 0.646264 2.341418  -0.000037 1.930778 0.000000 
1 0.061904 -0.214645 0.152088 0.223394 4.993171  0.000686 9.493753 0.000000 
1 -0.203370 0.413518 -0.185105 0.460822 2.027865  -0.000114 3.183297 0.000000 
1 -0.873956 -0.484010 -0.140872 0.999032 3.647361  -0.000000 1.005297 0.000000 
1 -0.626756 0.581842 0.056320 0.855198 2.393339  -0.000012 1.262966 0.000000 
1 -0.504586 -0.446527 0.012144 0.673790 3.866023  -0.000031 1.811029 0.000000 
1 0.528499 -0.819928 -0.103742 0.975496 5.284935  -0.000005 1.038074 0.000000 
1 -0.540702 -0.192830 0.134957 0.574058 3.484161  -0.000056 2.295797 0.000000 
1 -0.817719 0.381595 -0.108343 0.902374 2.704973  -0.000010 1.161359 0.000000 
1 0.447488 0.695413 0.209513 0.826949 0.999014  -0.000014 1.327879 0.000000 
1 0.520733 0.799814 0.012998 0.954393 0.993671  -0.000007 1.072681 0.000000 
1 -0.178249 0.206604 0.081613 0.272870 2.282648  -0.000057 7.039714 0.000000 
1 -0.060464 0.409523 -0.217914 0.413962 1.717383  -0.000157 3.769170 0.000000 
1 -0.451781 0.240723 -0.218452 0.511912 2.652027  -0.000083 2.734912 0.000000 
21
Atoms. Timestep: 16
0 0.000000 0.000000 0.000000 0.000000 0.000000  0.000000 0.000000 0.000000 
1 0.446265 0.088275 0.141550 0.454912 0.195286  -0.000122 3.257372 0.000000 
1 -0.796017 0.462214 -0.151224 0.920480 2.615517  -0.000010 1.134809 0.000000 
1 -0.444059 -0.655080 -0.111113 0.791403 4.116670  -0.000018 1.417201 0.000000 
1 -0.505115 -0.159299 0.064435 0.529639 3.447091  -0.000075 2.574006 0.000000 
1 0.481292 0.290263 0.226115 0.562045 0.542690  -0.000063 2.382732 0.000000 
1 -0.088213 0.666319 0.108648 0.672133 1.702419  -0.000033 1.811030 0.000000 
1 -0.473282 0.440068 -0.241850 0.646263 2.392544  -0.000038 1.930780 0.000000 
1 0.113360 -0.192518 0.152088 0.223413 5.244554  0.000795 9.493326 0.000000 
1 -0.237461 0.394925 -0.185105 0.460819 2.112157  -0.000117 3.183308 0.000000 
1 -0.860764 -0.507101 -0.140872 0.999032 3.673980  -0.000000 1.005297 0.000000 
1 -0.645860 0.560560 0.056320 0.855198 2.426782  -0.000013 1.262966 0.000000 
1 -0.482601 -0.470201 0.012144 0.673789 3.913978  -0.000033 1.811030 0.000000 
1 0.550834 -0.805093 -0.103742 0.975496 5.312423  -0.000005 1.038074 0.000000 
1 -0.527987 -0.225323 0.134957 0.574056 3.544952  -0.000058 2.295800 0.000000 
1 -0.829066 0.356271 -0.108343 0.902374 2.735725  -0.000011 1.161359 0.000000 
1 0.422765 0.710714 0.209513 0.826949 1.034176  -0.000015 1.327879 0.000000 
1 0.497808 0.814280 0.012998 0.954393 1.022075  -0.000007 1.072681 0.000000 
1 -0.213451 0.169990 0.081613 0.272870 2.469056  0.000035 7.039718 0.000000 
1 -0.100967 0.401456 -0.217914 0.413958 1.817188  -0.000156 3.769189 0.000000 
1 -0.468013 0.207402 -0.218452 0.511910 2.724446  -0.000086 2.734918 0.000000 
21
Atoms. Timestep: 17
0 0.000000 0.000000 0.000000 0.000000 0.000000  0.000000 0.000000 0.000000 
1 0.436999 0.126386 0.141550 0.454909 0.281531  -0.000123 3.257383 0.000000 
1 -0.809543 0.438091 -0.151224 0.920480 2.645562  -0.000011 1.134809 0.000000 
1 -0.419172 -0.671277 -0.111113 0.791402 4.154193  -0.000019 1.417202 0.000000 
1 -0.493092 -0.193326 0.064435 0.529637 3.515242  -0.000077 2.574011 0.000000 
1 0.462034 0.320028 0.226115 0.562044 0.605776  -0.000065 2.382736 0.000000 
1 -0.120049 0.661324 0.108648 0.672132 1.750369  -0.000034 1.811031 0.000000 
1 -0.495150 0.415308 -0.241850 0.646262 2.443664  -0.000040 1.930781 0.000000 
1 0.157693 -0.158290 0.152088 0.223435 5.495898  0.000853 9.492850 0.000000 
1 -0.269863 0.373531 -0.185105 0.460816 2.196441  -0.000118 3.183318 0.000000 
1 -0.846963 -0.529829 -0.140872 0.999032 3.700597  -0.000000 1.005297 0.000000 
1 -0.664240 0.538654 0.056320 0.855198 2.460221  -0.000014 1.262966 0.000000 
1 -0.459508 -0.492791 0.012144 0.673788 3.961927  -0.000034 1.811031 0.000000 
1 0.572751 -0.789651 -0.103742 0.975496 5.339908  -0.000005 1.038074 0.000000 
1 -0.513323 -0.256980 0.134957 0.574055 3.605737  -0.000060 2.295803 0.000000 
1 -0.839627 0.330614 -0.108343 0.902374 2.766474  -0.000011 1.161359 0.000000 
1 0.397521 0.725135 0.209513 0.826948 1.069333  -0.000016 1.327879 0.000000 
1 0.474484 0.828088 0.012998 0.954392 1.050476  -0.000007 1.072681 0.000000 
1 -0.241257 0.127493 0.081613 0.272872 2.655443  0.000129 7.039689 0.000000 
1 -0.140460 0.389395 -0.217914 0.413954 1.916984  -0.000154 3.769208 0.000000 
1 -0.481789 0.172998 -0.218452 0.511908 2.796857  -0.000088 2.734924 0.000000 
21