20
Atoms. Timestep: 0
1 0.184251 -0.836108 -0.052809 0.856169 4.929290  -0.000001 1.257641 0.000000 
1 0.257393 0.777077 0.205824 0.818596 1.250938  -0.000001 1.363681 0.000000 
1 -0.080694 0.393512 0.134115 0.401700 1.773054  -0.000005 3.906107 0.000000 
1 -0.406147 -0.439698 -0.011301 0.598573 3.966636  -0.000002 2.157405 0.000000 
1 0.412263 -0.116125 0.006700 0.428306 6.008622  -0.000004 3.602367 0.000000 
1 -0.181383 -0.906609 0.067856 0.924576 4.514928  -0.000001 1.128968 0.000000 
1 0.224232 0.038078 0.053484 0.227442 0.168210  -0.000015 9.262841 0.000000 
1 0.118116 -0.295894 -0.181384 0.318598 5.092193  -0.000008 5.547380 0.000000 
1 0.154270 0.185167 -0.049528 0.241011 0.876172  -0.000013 8.542559 0.000000 
1 0.023263 0.196556 0.249462 0.197928 1.452991  -0.000020 11.494610 0.000000 
1 -0.420459 -0.372362 0.169556 0.561639 3.866399  -0.000002 2.403293 0.000000 
1 -0.360219 -0.067170 0.068776 0.366428 3.325945  -0.000006 4.470313 0.000000 
1 -0.152844 0.522321 0.236388 0.544225 1.855474  -0.000003 2.469025 0.000000 
1 0.106952 -0.786988 0.013372 0.794222 4.847462  -0.000001 1.400979 0.000000 
1 -0.105943 0.447845 0.195765 0.460206 1.803088  -0.000004 3.233798 0.000000 
1 0.369585 -0.193579 0.153862 0.417212 5.800700  -0.000004 3.700894 0.000000 
1 -0.156871 -0.043460 0.224664 0.162780 3.411857  -0.000028 15.055036 0.000000 
1 -0.077060 -0.159844 -0.153893 0.177450 4.263168  -0.000025 13.514712 0.000000 
1 0.826000 0.360419 -0.075554 0.901209 0.411438  -0.000001 1.159846 0.000000 
1 0.099346 0.063711 -0.021149 0.118020 0.570238  -0.000054 24.469186 0.000000 
20
Atoms. Timestep: 1
1 0.191702 -0.834431 -0.052809 0.856169 4.938210  -0.000002 1.257641 0.000000 
1 0.249866 0.779530 0.205824 0.818596 1.260609  -0.000002 1.363681 0.000000 
1 -0.091563 0.391126 0.134115 0.401700 1.800757  -0.000009 3.906108 0.000000 
1 -0.399372 -0.445861 -0.011301 0.598573 3.981937  -0.000004 2.157405 0.000000 
1 0.415095 -0.105556 0.006700 0.428306 6.034171  -0.000008 3.602367 0.000000 
1 -0.174118 -0.908032 0.067856 0.924576 4.522935  -0.000002 1.128968 0.000000 
1 0.221248 0.052716 0.053484 0.227442 0.233904  -0.000030 9.262845 0.000000 
1 0.129663 -0.291019 -0.181384 0.318598 5.131536  -0.000015 5.547381 0.000000 
1 0.142776 0.194168 -0.049528 0.241011 0.936758  -0.000027 8.542561 0.000000 
1 0.007180 0.197797 0.249462 0.197928 1.534513  -0.000040 11.494617 0.000000 
1 -0.414051 -0.379474 0.169556 0.561639 3.883444  -0.000005 2.403293 0.000000 
1 -0.357909 -0.078555 0.068776 0.366428 3.357649  -0.000011 4.470313 0.000000 
1 -0.161967 0.519564 0.236388 0.544225 1.872985  -0.000005 2.469025 0.000000 
1 0.114766 -0.785886 0.013372 0.794222 4.857398  -0.000002 1.400979 0.000000 
1 -0.116185 0.445298 0.195765 0.460206 1.826022  -0.000007 3.233798 0.000000 
1 0.374538 -0.183813 0.153862 0.417212 5.826947  -0.000009 3.700895 0.000000 
1 -0.151345 -0.059930 0.224664 0.162779 3.518630  -0.000056 15.055050 0.000000 
1 -0.061409 -0.166485 -0.153893 0.177450 4.359017  -0.000049 13.514722 0.000000 
1 0.823008 0.367201 -0.075554 0.901209 0.419664  -0.000002 1.159846 0.000000 
1 0.086852 0.079908 -0.021149 0.118020 0.743780  -0.000107 24.469246 0.000000 
20
Atoms. Timestep: 2
1 0.199147 -0.832686 -0.052809 0.856169 4.947142  -0.000003 1.257641 0.000000 
1 0.242304 0.781913 0.205824 0.818596 1.270295  -0.000003 1.363681 0.000000 
1 -0.102378 0.388435 0.134115 0.401700 1.828500  -0.000014 3.906108 0.000000 
1 -0.392493 -0.451928 -0.011301 0.598573 3.997260  -0.000006 2.157405 0.000000 
1 0.417660 -0.094901 0.006700 0.428306 6.059757  -0.000013 3.602367 0.000000 
1 -0.166832 -0.909399 0.067856 0.924576 4.530954  -0.000003 1.128968 0.000000 
1 0.217304 0.067147 0.053484 0.227442 0.299695  -0.000044 9.262850 0.000000 
1 0.141026 -0.285685 -0.181384 0.318598 5.170937  -0.000022 5.547382 0.000000 
1 0.130739 0.202468 -0.049528 0.241011 0.997433  -0.000040 8.542565 0.000000 
1 -0.008975 0.197724 0.249462 0.197927 1.616155  -0.000059 11.494627 0.000000 
1 -0.407513 -0.386486 0.169556 0.561639 3.900514  -0.000007 2.403293 0.000000 
1 -0.355235 -0.089877 0.068776 0.366428 3.389400  -0.000017 4.470314 0.000000 
1 -0.171053 0.516644 0.236388 0.544225 1.890521  -0.000008 2.469025 0.000000 
1 0.122580 -0.784705 0.013372 0.794222 4.867349  -0.000004 1.400979 0.000000 
1 -0.126382 0.442512 0.195765 0.460206 1.848991  -0.000011 3.233799 0.000000 
1 0.379240 -0.173905 0.153862 0.417212 5.853233  -0.000013 3.700895 0.000000 
1 -0.144084 -0.075740 0.224664 0.162779 3.625561  -0.000084 15.055073 0.000000 
1 -0.045170 -0.171604 -0.153893 0.177449 4.455007  -0.000073 13.514738 0.000000 
1 0.819955 0.373968 -0.075554 0.901209 0.427902  -0.000003 1.159846 0.000000 
1 0.071725 0.093722 -0.021149 0.118018 0.917577  -0.000156 24.469343 0.000000 
20
Atoms. Timestep: 3
1 0.206577 -0.830874 -0.052809 0.856169 4.956075  -0.000004 1.257641 0.000000 
1 0.234719 0.784223 0.205824 0.818596 1.279981  -0.000005 1.363681 0.000000 
1 -0.113114 0.385446 0.134115 0.401700 1.856244  -0.000019 3.906109 0.000000 
1 -0.385522 -0.457889 -0.011301 0.598573 4.012583  -0.000009 2.157405 0.000000 
1 0.419951 -0.084185 0.006700 0.428306 6.085343  -0.000017 3.602368 0.000000 
1 -0.159534 -0.910708 0.067856 0.924575 4.538972  -0.000004 1.128968 0.000000 
1 0.212419 0.081288 0.053484 0.227441 0.365486  -0.000059 9.262857 0.000000 
1 0.152170 -0.279908 -0.181384 0.318598 5.210338  -0.000030 5.547384 0.000000 
1 0.118221 0.210023 -0.049528 0.241010 1.058107  -0.000053 8.542571 0.000000 
1 -0.025069 0.196332 0.249462 0.197927 1.697797  -0.000078 11.494641 0.000000 
1 -0.400857 -0.393385 0.169556 0.561639 3.917583  -0.000010 2.403293 0.000000 
1 -0.352202 -0.101109 0.068776 0.366428 3.421151  -0.000022 4.470315 0.000000 
1 -0.180086 0.513565 0.236388 0.544225 1.908058  -0.000010 2.469025 0.000000 
1 0.130383 -0.783447 0.013372 0.794222 4.877299  -0.000005 1.400979 0.000000 
1 -0.136511 0.439493 0.195765 0.460206 1.871959  -0.000015 3.233799 0.000000 
1 0.383680 -0.163878 0.153862 0.417212 5.879519  -0.000017 3.700895 0.000000 
1 -0.135177 -0.090685 0.224664 0.162778 3.732492  -0.000110 15.055105 0.000000 
1 -0.028514 -0.175143 -0.153893 0.177449 4.550998  -0.000096 13.514761 0.000000 
1 0.816846 0.380710 -0.075554 0.901209 0.436140  -0.000004 1.159846 0.000000 
1 0.054437 0.104712 -0.021149 0.118017 1.091374  -0.000201 24.469475 0.000000 
20
Atoms. Timestep: 4
1 0.213991 -0.828995 -0.052809 0.856169 4.965007  -0.000005 1.257641 0.000000 
1 0.227112 0.786460 0.205824 0.818596 1.289666  -0.000006 1.363682 0.000000 
1 -0.123762 0.382159 0.134115 0.401700 1.883988  -0.000023 3.906109 0.000000 
1 -0.378461 -0.463742 -0.011301 0.598573 4.027906  -0.000011 2.157405 0.000000 
1 0.421967 -0.073414 0.006700 0.428306 6.110930  -0.000021 3.602368 0.000000 
1 -0.152227 -0.911958 0.067856 0.924575 4.546991  -0.000004 1.128968 0.000000 
1 0.206615 0.095077 0.053484 0.227441 0.431276  -0.000073 9.262867 0.000000 
1 0.163078 -0.273697 -0.181384 0.318597 5.249739  -0.000037 5.547386 0.000000 
1 0.105268 0.216805 -0.049528 0.241010 1.118782  -0.000066 8.542579 0.000000 
1 -0.040997 0.193633 0.249462 0.197926 1.779440  -0.000097 11.494659 0.000000 
1 -0.394084 -0.400170 0.169556 0.561639 3.934653  -0.000012 2.403293 0.000000 
1 -0.348815 -0.112239 0.068776 0.366428 3.452902  -0.000028 4.470316 0.000000 
1 -0.189064 0.510328 0.236388 0.544224 1.925594  -0.000013 2.469025 0.000000 
1 0.138172 -0.782111 0.013372 0.794222 4.887250  -0.000006 1.400979 0.000000 
1 -0.146569 0.436241 0.195765 0.460205 1.894928  -0.000018 3.233799 0.000000 
1 0.387854 -0.153737 0.153862 0.417212 5.905806  -0.000022 3.700896 0.000000 
1 -0.124726 -0.104593 0.224664 0.162777 3.839423  -0.000136 15.055145 0.000000 
1 -0.011597 -0.177068 -0.153893 0.177448 4.646988  -0.000119 13.514791 0.000000 
1 0.813682 0.387427 -0.075554 0.901209 0.444378  -0.000005 1.159846 0.000000 
1 0.035509 0.112546 -0.021149 0.118015 1.265173  -0.000241 24.469638 0.000000 
20
Atoms. Timestep: 5
1 0.221387 -0.827051 -0.052809 0.856169 4.973940  -0.000006 1.257641 0.000000 
1 0.219484 0.788623 0.205824 0.818596 1.299352  -0.000007 1.363682 0.000000 
1 -0.134316 0.378579 0.134115 0.401700 1.911731  -0.000028 3.906110 0.000000 
1 -0.371311 -0.469487 -0.011301 0.598573 4.043230  -0.000013 2.157405 0.000000 
1 0.423707 -0.062594 0.006700 0.428305 6.136516  -0.000025 3.602369 0.000000 
1 -0.144909 -0.913149 0.067856 0.924575 4.555010  -0.000005 1.128968 0.000000 
1 0.199916 0.108455 0.053484 0.227440 0.497067  -0.000087 9.262879 0.000000 
1 0.173732 -0.267060 -0.181384 0.318597 5.289140  -0.000045 5.547388 0.000000 
1 0.091927 0.222789 -0.049528 0.241009 1.179457  -0.000078 8.542588 0.000000 
1 -0.056651 0.189644 0.249462 0.197925 1.861082  -0.000114 11.494681 0.000000 
1 -0.387196 -0.406838 0.169556 0.561639 3.951723  -0.000015 2.403293 0.000000 
1 -0.345076 -0.123256 0.068776 0.366428 3.484653  -0.000034 4.470317 0.000000 
1 -0.197984 0.506934 0.236388 0.544224 1.943131  -0.000015 2.469025 0.000000 
1 0.145947 -0.780697 0.013372 0.794222 4.897201  -0.000007 1.400979 0.000000 
1 -0.156549 0.432760 0.195765 0.460205 1.917896  -0.000022 3.233800 0.000000 
1 0.391761 -0.143490 0.153862 0.417212 5.932092  -0.000026 3.700897 0.000000 
1 -0.112850 -0.117307 0.224664 0.162776 3.946355  -0.000159 15.055193 0.000000 
1 0.005427 -0.177364 -0.153893 0.177447 4.742979  -0.000140 13.514826 0.000000 
1 0.810463 0.394116 -0.075554 0.901209 0.452616  -0.000006 1.159846 0.000000 
1 0.015512 0.116990 -0.021149 0.118013 1.438973  -0.000273 24.469828 0.000000 
20
Atoms. Timestep: 6
1 0.228766 -0.825040 -0.052809 0.856169 4.982872  -0.000007 1.257641 0.000000 
1 0.211836 0.790711 0.205824 0.818596 1.309038  -0.000008 1.363682 0.000000 
1 -0.144766 0.374707 0.134115 0.401700 1.939475  -0.000033 3.906111 0.000000 
1 -0.364073 -0.475121 -0.011301 0.598573 4.058553  -0.000015 2.157406 0.000000 
1 0.425169 -0.051734 0.006700 0.428305 6.162102  -0.000029 3.602370 0.000000 
1 -0.137582 -0.914282 0.067856 0.924575 4.563028  -0.000006 1.128968 0.000000 
1 0.192353 0.121363 0.053484 0.227439 0.562858  -0.000101 9.262892 0.000000 
1 0.184117 -0.260009 -0.181384 0.318597 5.328541  -0.000052 5.547391 0.000000 
1 0.078249 0.227952 -0.049528 0.241009 1.240132  -0.000091 8.542599 0.000000 
1 -0.071928 0.184392 0.249462 0.197924 1.942725  -0.000132 11.494707 0.000000 
1 -0.380195 -0.413388 0.169556 0.561639 3.968793  -0.000017 2.403294 0.000000 
1 -0.340989 -0.134148 0.068776 0.366427 3.516404  -0.000039 4.470319 0.000000 
1 -0.206843 0.503385 0.236388 0.544224 1.960667  -0.000018 2.469026 0.000000 
1 0.153708 -0.779206 0.013372 0.794222 4.907151  -0.000008 1.400979 0.000000 
1 -0.166447 0.429050 0.195765 0.460205 1.940865  -0.000025 3.233801 0.000000 
1 0.395397 -0.133143 0.153862 0.417212 5.958378  -0.000030 3.700898 0.000000 
1 -0.099684 -0.128680 0.224664 0.162774 4.053286  -0.000181 15.055249 0.000000 
1 0.022401 -0.176026 -0.153893 0.177446 4.838970  -0.000160 13.514867 0.000000 
1 0.807189 0.400780 -0.075554 0.901209 0.460854  -0.000007 1.159846 0.000000 
1 -0.004952 0.117907 -0.021149 0.118011 1.612775  -0.000296 24.470038 0.000000 
20
Atoms. Timestep: 7
1 0.236126 -0.822964 -0.052809 0.856169 4.991805  -0.000008 1.257641 0.000000 
1 0.204167 0.792726 0.205824 0.818596 1.318723  -0.000009 1.363682 0.000000 
1 -0.155104 0.370547 0.134115 0.401699 1.967219  -0.000037 3.906113 0.000000 
1 -0.356750 -0.480643 -0.011301 0.598572 4.073876  -0.000017 2.157406 0.000000 
1 0.426353 -0.040840 0.006700 0.428305 6.187689  -0.000034 3.602371 0.000000 
1 -0.130247 -0.915355 0.067856 0.924575 4.571047  -0.000007 1.128968 0.000000 
1 0.183958 0.133746 0.053484 0.227439 0.628649  -0.000114 9.262908 0.000000 
1 0.194216 -0.252555 -0.181384 0.318596 5.367942  -0.000059 5.547395 0.000000 
1 0.064282 0.232277 -0.049528 0.241008 1.300807  -0.000103 8.542611 0.000000 
1 -0.086726 0.177911 0.249462 0.197923 2.024368  -0.000148 11.494736 0.000000 
1 -0.373084 -0.419817 0.169556 0.561639 3.985862  -0.000020 2.403294 0.000000 
1 -0.336558 -0.144905 0.068776 0.366427 3.548155  -0.000045 4.470321 0.000000 
1 -0.215638 0.499680 0.236388 0.544224 1.978204  -0.000020 2.469026 0.000000 
1 0.161454 -0.777638 0.013372 0.794222 4.917102  -0.000010 1.400979 0.000000 
1 -0.176256 0.425114 0.195765 0.460205 1.963833  -0.000029 3.233801 0.000000 
1 0.398759 -0.122705 0.153862 0.417211 5.984664  -0.000035 3.700899 0.000000 
1 -0.085380 -0.138583 0.224664 0.162773 4.160219  -0.000201 15.055312 0.000000 
1 0.039169 -0.173067 -0.153893 0.177444 4.934962  -0.000178 13.514913 0.000000 
1 0.803860 0.407415 -0.075554 0.901209 0.469092  -0.000007 1.159846 0.000000 
1 -0.025267 0.115272 -0.021149 0.118009 1.786578  -0.000309 24.470261 0.000000 
20
Atoms. Timestep: 8
1 0.243468 -0.820822 -0.052809 0.856169 5.000737  -0.000009 1.257641 0.000000 
1 0.196480 0.794666 0.205824 0.818596 1.328409  -0.000010 1.363682 0.000000 
1 -0.165324 0.366101 0.134115 0.401699 1.994962  -0.000042 3.906114 0.000000 
1 -0.349344 -0.486053 -0.011301 0.598572 4.089199  -0.000019 2.157406 0.000000 
1 0.427258 -0.029919 0.006700 0.428305 6.213275  -0.000038 3.602372 0.000000 
1 -0.122903 -0.916370 0.067856 0.924575 4.579066  -0.000008 1.128968 0.000000 
1 0.174766 0.145550 0.053484 0.227438 0.694440  -0.000126 9.262925 0.000000 
1 0.204013 -0.244708 -0.181384 0.318596 5.407343  -0.000066 5.547399 0.000000 
1 0.050079 0.235747 -0.049528 0.241007 1.361482  -0.000114 8.542625 0.000000 
1 -0.100945 0.170244 0.249462 0.197922 2.106011  -0.000163 11.494768 0.000000 
1 -0.365864 -0.426124 0.169556 0.561638 4.002932  -0.000022 2.403294 0.000000 
1 -0.331788 -0.155516 0.068776 0.366427 3.579906  -0.000050 4.470323 0.000000 
1 -0.224367 0.495822 0.236388 0.544224 1.995741  -0.000023 2.469026 0.000000 
1 0.169184 -0.775993 0.013372 0.794222 4.927052  -0.000011 1.400979 0.000000 
1 -0.185973 0.420954 0.195765 0.460205 1.986802  -0.000033 3.233802 0.000000 
1 0.401846 -0.112182 0.153862 0.417211 6.010950  -0.000039 3.700900 0.000000 
1 -0.070101 -0.146903 0.224664 0.162771 4.267151  -0.000219 15.055380 0.000000 
1 0.055576 -0.168515 -0.153893 0.177443 5.030953  -0.000195 13.514964 0.000000 
1 0.800476 0.414024 -0.075554 0.901209 0.477330  -0.000008 1.159846 0.000000 
1 -0.044820 0.109164 -0.021149 0.118007 1.960383  -0.000311 24.470489 0.000000 
20
Atoms. Timestep: 9
1 0.250790 -0.818614 -0.052809 0.856169 5.009670  -0.000010 1.257641 0.000000 
1 0.188774 0.796532 0.205824 0.818596 1.338095  -0.000012 1.363682 0.000000 
1 -0.175415 0.361374 0.134115 0.401699 2.022706  -0.000046 3.906115 0.000000 
1 -0.341855 -0.491349 -0.011301 0.598572 4.104523  -0.000021 2.157406 0.000000 
1 0.427884 -0.018978 0.006700 0.428304 6.238861  -0.000042 3.602373 0.000000 
1 -0.115551 -0.917326 0.067856 0.924575 4.587084  -0.000009 1.128968 0.000000 
1 0.164818 0.156724 0.053484 0.227437 0.760231  -0.000138 9.262945 0.000000 
1 0.213493 -0.236481 -0.181384 0.318595 5.446744  -0.000073 5.547403 0.000000 
1 0.035691 0.238349 -0.049528 0.241006 1.422157  -0.000126 8.542640 0.000000 
1 -0.114492 0.161444 0.249462 0.197921 2.187654  -0.000177 11.494804 0.000000 
1 -0.358537 -0.432307 0.169556 0.561638 4.020002  -0.000024 2.403295 0.000000 
1 -0.326683 -0.165971 0.068776 0.366426 3.611657  -0.000055 4.470325 0.000000 
1 -0.233027 0.491811 0.236388 0.544224 2.013277  -0.000025 2.469027 0.000000 
1 0.176897 -0.774271 0.013372 0.794221 4.937003  -0.000012 1.400980 0.000000 
1 -0.195592 0.416572 0.195765 0.460204 2.009770  -0.000036 3.233803 0.000000 
1 0.404656 -0.101581 0.153862 0.417211 6.037236  -0.000043 3.700901 0.000000 
1 -0.054021 -0.153544 0.224664 0.162770 4.374085  -0.000234 15.055454 0.000000 
1 0.071471 -0.162411 -0.153893 0.177441 5.126946  -0.000210 13.515019 0.000000 
1 0.797038 0.420604 -0.075554 0.901209 0.485568  -0.000009 1.159846 0.000000 
1 -0.063021 0.099767 -0.021149 0.118005 2.134189  -0.000304 24.470715 0.000000 
20
Atoms. Timestep: 10
1 0.258092 -0.816341 -0.052809 0.856168 5.018603  -0.000011 1.257641 0.000000 
1 0.181050 0.798323 0.205824 0.818595 1.347781  -0.000013 1.363682 0.000000 
1 -0.185372 0.356369 0.134115 0.401698 2.050450  -0.000051 3.906117 0.000000 
1 -0.334286 -0.496529 -0.011301 0.598572 4.119846  -0.000023 2.157407 0.000000 
1 0.428229 -0.008025 0.006700 0.428304 6.264448  -0.000046 3.602374 0.000000 
1 -0.108191 -0.918223 0.067856 0.924575 4.595103  -0.000010 1.128968 0.000000 
1 0.154157 0.167220 0.053484 0.227436 0.826023  -0.000150 9.262965 0.000000 
1 0.222643 -0.227888 -0.181384 0.318595 5.486146  -0.000080 5.547408 0.000000 
1 0.021172 0.240073 -0.049528 0.241005 1.482832  -0.000136 8.542657 0.000000 
1 -0.127276 0.151568 0.249462 0.197919 2.269298  -0.000190 11.494842 0.000000 
1 -0.351105 -0.438363 0.169556 0.561638 4.037071  -0.000027 2.403295 0.000000 
1 -0.321249 -0.176257 0.068776 0.366426 3.643408  -0.000061 4.470327 0.000000 
1 -0.241616 0.487649 0.236388 0.544223 2.030814  -0.000028 2.469027 0.000000 
1 0.184593 -0.772472 0.013372 0.794221 4.946954  -0.000013 1.400980 0.000000 
1 -0.205107 0.411969 0.195765 0.460204 2.032739  -0.000040 3.233804 0.000000 
1 0.407185 -0.090910 0.153862 0.417210 6.063522  -0.000047 3.700903 0.000000 
1 -0.037325 -0.158431 0.224664 0.162768 4.481019  -0.000246 15.055532 0.000000 
1 0.086707 -0.154812 -0.153893 0.177440 5.222938  -0.000224 13.515079 0.000000 
1 0.793546 0.427155 -0.075554 0.901209 0.493806  -0.000010 1.159847 0.000000 
1 -0.079324 0.087364 -0.021149 0.118003 2.307997  -0.000285 24.470932 0.000000 
20
Atoms. Timestep: 11
1 0.265374 -0.814003 -0.052809 0.856168 5.027535  -0.000012 1.257641 0.000000 
1 0.173309 0.800039 0.205824 0.818595 1.357466  -0.000014 1.363682 0.000000 
1 -0.195187 0.351089 0.134115 0.401698 2.078193  -0.000055 3.906119 0.000000 
1 -0.326638 -0.501593 -0.011301 0.598572 4.135169  -0.000025 2.157407 0.000000 
1 0.428294 0.002933 0.006700 0.428304 0.006849  -0.000050 3.602376 0.000000 
1 -0.100825 -0.919061 0.067856 0.924575 4.603122  -0.000011 1.128968 0.000000 
1 0.142829 0.176992 0.053484 0.227435 0.891814  -0.000161 9.262988 0.000000 
1 0.231446 -0.218940 -0.181384 0.318594 5.525547  -0.000087 5.547413 0.000000 
1 0.006576 0.240914 -0.049528 0.241004 1.543508  -0.000147 8.542675 0.000000 
1 -0.139212 0.140682 0.249462 0.197918 2.350941  -0.000202 11.494883 0.000000 
1 -0.343572 -0.444292 0.169556 0.561638 4.054141  -0.000029 2.403295 0.000000 
1 -0.315492 -0.186367 0.068776 0.366425 3.675159  -0.000066 4.470330 0.000000 
1 -0.250130 0.483337 0.236388 0.544223 2.048350  -0.000030 2.469028 0.000000 
1 0.192270 -0.770597 0.013372 0.794221 4.956904  -0.000014 1.400980 0.000000 
1 -0.214515 0.407150 0.195765 0.460204 2.055707  -0.000043 3.233805 0.000000 
1 0.409434 -0.080177 0.153862 0.417210 6.089808  -0.000052 3.700904 0.000000 
1 -0.020202 -0.161508 0.224664 0.162766 4.587953  -0.000255 15.055614 0.000000 
1 0.101145 -0.145787 -0.153893 0.177438 5.318931  -0.000235 13.515141 0.000000 
1 0.790000 0.433678 -0.075554 0.901209 0.502044  -0.000011 1.159847 0.000000 
1 -0.093235 0.072328 -0.021149 0.118001 2.481806  -0.000252 24.471130 0.000000 
20
Atoms. Timestep: 12
1 0.272634 -0.811600 -0.052809 0.856168 5.036468  -0.000013 1.257641 0.000000 
1 0.165552 0.801680 0.205824 0.818595 1.367152  -0.000015 1.363682 0.000000 
1 -0.204850 0.345539 0.134115 0.401697 2.105937  -0.000060 3.906121 0.000000 
1 -0.318914 -0.506539 -0.011301 0.598572 4.150492  -0.000028 2.157407 0.000000 
1 0.428078 0.013890 0.006700 0.428303 0.032435  -0.000054 3.602377 0.000000 
1 -0.093452 -0.919840 0.067856 0.924575 4.611140  -0.000012 1.128968 0.000000 
1 0.130883 0.185999 0.053484 0.227433 0.957606  -0.000171 9.263012 0.000000 
1 0.239890 -0.209653 -0.181384 0.318593 5.564948  -0.000093 5.547418 0.000000 
1 -0.008045 0.240869 -0.049528 0.241003 1.604183  -0.000156 8.542694 0.000000 
1 -0.150220 0.128859 0.249462 0.197916 2.432586  -0.000212 11.494926 0.000000 
1 -0.335938 -0.450092 0.169556 0.561638 4.071211  -0.000032 2.403296 0.000000 
1 -0.309416 -0.196288 0.068776 0.366425 3.706910  -0.000071 4.470333 0.000000 
1 -0.258567 0.478876 0.236388 0.544223 2.065887  -0.000033 2.469028 0.000000 
1 0.199928 -0.768646 0.013372 0.794221 4.966855  -0.000016 1.400980 0.000000 
1 -0.223809 0.402115 0.195765 0.460203 2.078676  -0.000047 3.233806 0.000000 
1 0.411399 -0.069388 0.153862 0.417210 6.116095  -0.000056 3.700906 0.000000 
1 -0.002848 -0.162739 0.224664 0.162764 4.694888  -0.000262 15.055699 0.000000 
1 0.114651 -0.135421 -0.153893 0.177436 5.414925  -0.000244 13.515206 0.000000 
1 0.786401 0.440171 -0.075554 0.901209 0.510282  -0.000012 1.159847 0.000000 
1 -0.104337 0.055114 -0.021149 0.117999 2.655617  -0.000207 24.471298 0.000000 
20
Atoms. Timestep: 13
1 0.279873 -0.809132 -0.052809 0.856168 5.045400  -0.000014 1.257641 0.000000 
1 0.157780 0.803246 0.205824 0.818595 1.376838  -0.000016 1.363682 0.000000 
1 -0.214357 0.339723 0.134115 0.401697 2.133681  -0.000064 3.906123 0.000000 
1 -0.311115 -0.511366 -0.011301 0.598571 4.165816  -0.000030 2.157408 0.000000 
1 0.427582 0.024837 0.006700 0.428303 0.058021  -0.000058 3.602379 0.000000 
1 -0.086073 -0.920560 0.067856 0.924575 4.619159  -0.000013 1.128968 0.000000 
1 0.118371 0.194200 0.053484 0.227432 1.023398  -0.000180 9.263038 0.000000 
1 0.247962 -0.200040 -0.181384 0.318593 5.604349  -0.000100 5.547424 0.000000 
1 -0.022636 0.239936 -0.049528 0.241002 1.664859  -0.000165 8.542714 0.000000 
1 -0.160228 0.116178 0.249462 0.197915 2.514230  -0.000221 11.494971 0.000000 
1 -0.328206 -0.455760 0.169556 0.561637 4.088281  -0.000034 2.403296 0.000000 
1 -0.303028 -0.206011 0.068776 0.366424 3.738662  -0.000076 4.470336 0.000000 
1 -0.266924 0.474268 0.236388 0.544223 2.083424  -0.000035 2.469029 0.000000 
1 0.207567 -0.766618 0.013372 0.794221 4.976806  -0.000017 1.400980 0.000000 
1 -0.232985 0.396869 0.195765 0.460203 2.101644  -0.000050 3.233807 0.000000 
1 0.413080 -0.058551 0.153862 0.417209 6.142381  -0.000060 3.700908 0.000000 
1 0.014537 -0.162112 0.224664 0.162762 4.801824  -0.000265 15.055785 0.000000 
1 0.127102 -0.123807 -0.153893 0.177435 5.510919  -0.000250 13.515274 0.000000 
1 0.782748 0.446634 -0.075554 0.901209 0.518520  -0.000013 1.159847 0.000000 
1 -0.112296 0.036240 -0.021149 0.117998 2.829429  -0.000154 24.471430 0.000000 
20
Atoms. Timestep: 14
1 0.287089 -0.806600 -0.052809 0.856168 5.054333  -0.000016 1.257642 0.000000 
1 0.149993 0.804736 0.205824 0.818595 1.386524  -0.000017 1.363682 0.000000 
1 -0.223698 0.333646 0.134115 0.401697 2.161425  -0.000069 3.906125 0.000000 
1 -0.303243 -0.516073 -0.011301 0.598571 4.181139  -0.000032 2.157408 0.000000 
1 0.426806 0.035768 0.006700 0.428302 0.083608  -0.000062 3.602381 0.000000 
1 -0.078689 -0.921220 0.067856 0.924575 4.627177  -0.000013 1.128969 0.000000 
1 0.105347 0.201561 0.053484 0.227431 1.089190  -0.000189 9.263064 0.000000 
1 0.255649 -0.190117 -0.181384 0.318592 5.643751  -0.000106 5.547431 0.000000 
1 -0.037143 0.238121 -0.049528 0.241001 1.725535  -0.000174 8.542736 0.000000 
1 -0.169167 0.102723 0.249462 0.197913 2.595875  -0.000229 11.495018 0.000000 
1 -0.320379 -0.461295 0.169556 0.561637 4.105350  -0.000037 2.403297 0.000000 
1 -0.296335 -0.215527 0.068776 0.366424 3.770413  -0.000081 4.470340 0.000000 
1 -0.275200 0.469514 0.236388 0.544223 2.100960  -0.000038 2.469029 0.000000 
1 0.215185 -0.764515 0.013372 0.794221 4.986756  -0.000018 1.400980 0.000000 
1 -0.242038 0.391413 0.195765 0.460203 2.124613  -0.000054 3.233809 0.000000 
1 0.414476 -0.047674 0.153862 0.417209 6.168667  -0.000064 3.700910 0.000000 
1 0.031756 -0.159632 0.224664 0.162761 4.908760  -0.000266 15.055872 0.000000 
1 0.138382 -0.111053 -0.153893 0.177433 5.606913  -0.000255 13.515343 0.000000 
1 0.779042 0.453067 -0.075554 0.901209 0.526758  -0.000014 1.159847 0.000000 
1 -0.116870 0.016273 -0.021149 0.117998 3.003241  -0.000093 24.471519 0.000000 
20
Atoms. Timestep: 15
1 0.294283 -0.804003 -0.052809 0.856168 5.063265  -0.000017 1.257642 0.000000 
1 0.142191 0.806151 0.205824 0.818595 1.396209  -0.000018 1.363682 0.000000 
1 -0.232867 0.327311 0.134115 0.401696 2.189168  -0.000073 3.906128 0.000000 
1 -0.295300 -0.520658 -0.011301 0.598571 4.196462  -0.000034 2.157408 0.000000 
1 0.425751 0.046675 0.006700 0.428302 0.109194  -0.000066 3.602383 0.000000 
1 -0.071300 -0.921821 0.067856 0.924575 4.635196  -0.000014 1.128969 0.000000 
1 0.091867 0.208050 0.053484 0.227429 1.154982  -0.000197 9.263092 0.000000 
1 0.262939 -0.179899 -0.181384 0.318591 5.683152  -0.000112 5.547438 0.000000 
1 -0.051514 0.235429 -0.049528 0.240999 1.786211  -0.000182 8.542758 0.000000 
1 -0.176980 0.088584 0.249462 0.197911 2.677520  -0.000235 11.495066 0.000000 
1 -0.312458 -0.466697 0.169556 0.561637 4.122420  -0.000039 2.403298 0.000000 
1 -0.289343 -0.224826 0.068776 0.366423 3.802164  -0.000086 4.470343 0.000000 
1 -0.283390 0.464616 0.236388 0.544222 2.118497  -0.000040 2.469030 0.000000 
1 0.222781 -0.762335 0.013372 0.794221 4.996707  -0.000019 1.400980 0.000000 
1 -0.250963 0.385751 0.195765 0.460202 2.147581  -0.000057 3.233810 0.000000 
1 0.415585 -0.036763 0.153862 0.417208 6.194953  -0.000068 3.700912 0.000000 
1 0.048613 -0.155329 0.224664 0.162759 5.015697  -0.000263 15.055958 0.000000 
1 0.148387 -0.097278 -0.153893 0.177431 5.702908  -0.000256 13.515412 0.000000 
1 0.775283 0.459470 -0.075554 0.901208 0.534996  -0.000015 1.159847 0.000000 
1 -0.117923 -0.004183 -0.021149 0.117997 3.177053  -0.000031 24.471563 0.000000 
20
Atoms. Timestep: 16
1 0.301453 -0.801342 -0.052809 0.856168 5.072198  -0.000018 1.257642 0.000000 
1 0.134376 0.807490 0.205824 0.818595 1.405895  -0.000020 1.363682 0.000000 
1 -0.241857 0.320725 0.134115 0.401695 2.216912  -0.000077 3.906130 0.000000 
1 -0.287287 -0.525122 -0.011301 0.598571 4.211786  -0.000036 2.157409 0.000000 
1 0.424417 0.057552 0.006700 0.428302 0.134781  -0.000070 3.602385 0.000000 
1 -0.063906 -0.922363 0.067856 0.924575 4.643215  -0.000015 1.128969 0.000000 
1 0.077989 0.213638 0.053484 0.227428 1.220775  -0.000204 9.263121 0.000000 
1 0.269820 -0.169401 -0.181384 0.318590 5.722553  -0.000118 5.547445 0.000000 
1 -0.065695 0.231871 -0.049528 0.240998 1.846887  -0.000189 8.542782 0.000000 
1 -0.183613 0.073855 0.249462 0.197910 2.759166  -0.000239 11.495116 0.000000 
1 -0.304447 -0.471962 0.169556 0.561636 4.139490  -0.000041 2.403298 0.000000 
1 -0.282059 -0.233897 0.068776 0.366422 3.833915  -0.000091 4.470347 0.000000 
1 -0.291494 0.459575 0.236388 0.544222 2.136033  -0.000043 2.469031 0.000000 
1 0.230356 -0.760081 0.013372 0.794221 5.006658  -0.000020 1.400980 0.000000 
1 -0.259756 0.379885 0.195765 0.460202 2.170550  -0.000061 3.233811 0.000000 
1 0.416408 -0.025828 0.153862 0.417208 6.221239  -0.000072 3.700914 0.000000 
1 0.064913 -0.149252 0.224664 0.162757 5.122634  -0.000257 15.056043 0.000000 
1 0.157027 -0.082606 -0.153893 0.177429 5.798904  -0.000256 13.515482 0.000000 
1 0.771472 0.465841 -0.075554 0.901208 0.543234  -0.000016 1.159847 0.000000 
1 -0.115423 -0.024514 -0.021149 0.117998 3.350866  0.000032 24.471560 0.000000 
20
Atoms. Timestep: 17
1 0.308599 -0.798618 -0.052809 0.856168 5.081131  -0.000019 1.257642 0.000000 
1 0.126549 0.808754 0.205824 0.818595 1.415581  -0.000021 1.363683 0.000000 
1 -0.250660 0.313892 0.134115 0.401695 2.244656  -0.000081 3.906133 0.000000 
1 -0.279207 -0.529462 -0.011301 0.598570 4.227109  -0.000038 2.157409 0.000000 
1 0.422805 0.068391 0.006700 0.428301 0.160367  -0.000073 3.602387 0.000000 
1 -0.056508 -0.922846 0.067856 0.924574 4.651233  -0.000016 1.128969 0.000000 
1 0.063774 0.218302 0.053484 0.227426 1.286568  -0.000210 9.263151 0.000000 
1 0.276283 -0.158641 -0.181384 0.318589 5.761955  -0.000124 5.547452 0.000000 
1 -0.079634 0.227459 -0.049528 0.240997 1.907564  -0.000196 8.542806 0.000000 
1 -0.189023 0.058633 0.249462 0.197908 2.840812  -0.000242 11.495166 0.000000 
1 -0.296346 -0.477089 0.169556 0.561636 4.156559  -0.000044 2.403299 0.000000 
1 -0.274491 -0.242733 0.068776 0.366422 3.865666  -0.000096 4.470351 0.000000 
1 -0.299508 0.454392 0.236388 0.544222 2.153570  -0.000045 2.469031 0.000000 
1 0.237907 -0.757751 0.013372 0.794220 5.016608  -0.000021 1.400980 0.000000 
1 -0.268412 0.373819 0.195765 0.460201 2.193519  -0.000064 3.233813 0.000000 
1 0.416942 -0.014874 0.153862 0.417207 6.247526  -0.000076 3.700916 0.000000 
1 0.080472 -0.141469 0.224664 0.162755 5.229573  -0.000248 15.056126 0.000000 
1 0.164220 -0.067174 -0.153893 0.177427 5.894899  -0.000253 13.515552 0.000000 
1 0.767608 0.472180 -0.075554 0.901208 0.551472  -0.000017 1.159847 0.000000 
1 -0.109445 -0.044106 -0.021149 0.117998 3.524678  0.000083 24.471517 0.000000 
20
Atoms. Timestep: 18
1 0.315720 -0.795829 -0.052809 0.856168 5.090063  -0.000020 1.257642 0.000000 
1 0.118710 0.809941 0.205824 0.818594 1.425266  -0.000022 1.363683 0.000000 
1 -0.259271 0.306817 0.134115 0.401694 2.272400  -0.000085 3.906136 0.000000 
1 -0.271061 -0.533678 -0.011301 0.598570 4.242432  -0.000040 2.157410 0.000000 
1 0.420917 0.079186 0.006700 0.428300 0.185953  -0.000077 3.602389 0.000000 
1 -0.049106 -0.923269 0.067856 0.924574 4.659252  -0.000017 1.128969 0.000000 
1 0.049284 0.222021 0.053484 0.227425 1.352361  -0.000215 9.263182 0.000000 
1 0.282317 -0.147634 -0.181384 0.318588 5.801357  -0.000130 5.547460 0.000000 
1 -0.093280 0.222210 -0.049528 0.240995 1.968240  -0.000201 8.542831 0.000000 
1 -0.193174 0.043022 0.249462 0.197906 2.922458  -0.000243 11.495216 0.000000 
1 -0.288160 -0.482078 0.169556 0.561636 4.173629  -0.000046 2.403299 0.000000 
1 -0.266647 -0.251324 0.068776 0.366421 3.897418  -0.000101 4.470355 0.000000 
1 -0.307430 0.449070 0.236388 0.544221 2.171107  -0.000048 2.469032 0.000000 
1 0.245436 -0.755346 0.013372 0.794220 5.026559  -0.000023 1.400981 0.000000 
1 -0.276926 0.367555 0.195765 0.460201 2.216487  -0.000067 3.233815 0.000000 
1 0.417188 -0.003911 0.153862 0.417207 6.273812  -0.000080 3.700919 0.000000 