1 
Atoms. Timestep: 0
0 0.00 0.00 0.00 0.00 0.00 0.00 0.00 0.00 
1 
Atoms. Timestep: 1
0 0.00 0.00 0.00 0.00 0.00 0.00 0.00 0.00 
1 
Atoms. Timestep: 2
0 0.00 0.00 0.00 0.00 0.00 0.00 0.00 0.00 
1 
Atoms. Timestep: 3
0 0.00 0.00 0.00 0.00 0.00 0.00 0.00 0.00 
1 
Atoms. Timestep: 4
0 0.00 0.00 0.00 0.00 0.00 0.00 0.00 0.00 
1 
Atoms. Timestep: 5
0 0.00 0.00 0.00 0.00 0.00 0.00 0.00 0.00 
1 
Atoms. Timestep: 6
0 0.00 0.00 0.00 0.00 0.00 0.00 0.00 0.00 
1 
Atoms. Timestep: 7
0 0.00 0.00 0.00 0.00 0.00 0.00 0.00 0.00 
1 
Atoms. Timestep: 8
0 0.00 0.00 0.00 0.00 0.00 0.00 0.00 0.00 
1 
Atoms. Timestep: 9
0 0.00 0.00 0.00 0.00 0.00 0.00 0.00 0.00 
1 
Atoms. Timestep: 10
0 0.00 0.00 0.00 0.00 0.00 0.00 0.00 0.00 
1 
Atoms. Timestep: 11
0 0.00 0.00 0.00 0.00 0.00 0.00 0.00 0.00 
1 
Atoms. Timestep: 12
0 0.00 0.00 0.00 0.00 0.00 0.00 0.00 0.00 
1 
Atoms. Timestep: 13
0 0.00 0.00 0.00 0.00 0.00 0.00 0.00 0.00 
1 
Atoms. Timestep: 14
0 0.00 0.00 0.00 0.00 0.00 0.00 0.00 0.00 
1 
Atoms. Timestep: 15
0 0.00 0.00 0.00 0.00 0.00 0.00 0.00 0.00 
1 
Atoms. Timestep: 16
0 0.00 0.00 0.00 0.00 0.00 0.00 0.00 0.00 
1 
Atoms. Timestep: 17
0 0.00 0.00 0.00 0.00 0.00 0.00 0.00 0.00 
1 
Atoms. Timestep: 18
0 0.00 0.00 0.00 0.00 0.00 0.00 0.00 0.00 
1 
Atoms. Timestep: 19
0 0.00 0.00 0.00 0.00 0.00 0.00 0.00 0.00 
1 
Atoms. Timestep: 20
0 0.00 0.00 0.00 0.00 0.00 0.00 0.00 0.00 
1 
Atoms. Timestep: 21
0 0.00 0.00 0.00 0.00 0.00 0.00 0.00 0.00 
1 
Atoms. Timestep: 22
0 0.00 0.00 0.00 0.00 0.00 0.00 0.00 0.00 
1 
Atoms. Timestep: 23
0 0.00 0.00 0.00 0.00 0.00 0.00 0.00 0.00 
1 
Atoms. Timestep: 24
0 0.00 0.00 0.00 0.00 0.00 0.00 0.00 0.00 
1 
Atoms. Timestep: 25
0 0.00 0.00 0.00 0.00 0.00 0.00 0.00 0.00 
1 
Atoms. Timestep: 26
0 0.00 0.00 0.00 0.00 0.00 0.00 0.00 0.00 
1 
Atoms. Timestep: 27
0 0.00 0.00 0.00 0.00 0.00 0.00 0.00 0.00 
1 
Atoms. Timestep: 28
0 0.00 0.00 0.00 0.00 0.00 0.00 0.00 0.00 
1 
Atoms. Timestep: 29
0 0.00 0.00 0.00 0.00 0.00 0.00 0.00 0.00 
1 
Atoms. Timestep: 30
0 0.00 0.00 0.00 0.00 0.00 0.00 0.00 0.00 
1 
Atoms. Timestep: 31
0 0.00 0.00 0.00 0.00 0.00 0.00 0.00 0.00 
1 
Atoms. Timestep: 32
0 0.00 0.00 0.00 0.00 0.00 0.00 0.00 0.00 
1 
Atoms. Timestep: 33
0 0.00 0.00 0.00 0.00 0.00 0.00 0.00 0.00 
1 
Atoms. Timestep: 34
0 0.00 0.00 0.00 0.00 0.00 0.00 0.00 0.00 
1 
Atoms. Timestep: 35
0 0.00 0.00 0.00 0.00 0.00 0.00 0.00 0.00 
1 
Atoms. Timestep: 36
0 0.00 0.00 0.00 0.00 0.00 0.00 0.00 0.00 
1 
Atoms. Timestep: 37
0 0.00 0.00 0.00 0.00 0.00 0.00 0.00 0.00 
1 
Atoms. Timestep: 38
0 0.00 0.00 0.00 0.00 0.00 0.00 0.00 0.00 
1 
Atoms. Timestep: 39
0 0.00 0.00 0.00 0.00 0.00 0.00 0.00 0.00 
1 
Atoms. Timestep: 40
0 0.00 0.00 0.00 0.00 0.00 0.00 0.00 0.00 
1 
Atoms. Timestep: 41
0 0.00 0.00 0.00 0.00 0.00 0.00 0.00 0.00 
1 
Atoms. Timestep: 42
0 0.00 0.00 0.00 0.00 0.00 0.00 0.00 0.00 
1 
Atoms. Timestep: 43
0 0.00 0.00 0.00 0.00 0.00 0.00 0.00 0.00 
