200
Atoms. Timestep: 0
1 0.184251 -0.836108 -0.052809 0.856169 4.929290 
1 0.257393 0.777077 0.205824 0.818596 1.250938 
1 -0.080694 0.393512 0.134115 0.401700 1.773054 
1 -0.406147 -0.439698 -0.011301 0.598573 3.966636 
1 0.412263 -0.116125 0.006700 0.428306 6.008622 
1 -0.181383 -0.906609 0.067856 0.924576 4.514928 
1 0.224232 0.038078 0.053484 0.227442 0.168210 
1 0.118116 -0.295894 -0.181384 0.318598 5.092193 
1 0.154270 0.185167 -0.049528 0.241011 0.876172 
1 0.023263 0.196556 0.249462 0.197928 1.452991 
1 -0.420459 -0.372362 0.169556 0.561639 3.866399 
1 -0.360219 -0.067170 0.068776 0.366428 3.325945 
1 -0.152844 0.522321 0.236388 0.544225 1.855474 
1 0.106952 -0.786988 0.013372 0.794222 4.847462 
1 -0.105943 0.447845 0.195765 0.460206 1.803088 
1 0.369585 -0.193579 0.153862 0.417212 5.800700 
1 -0.156871 -0.043460 0.224664 0.162780 3.411857 
1 -0.077060 -0.159844 -0.153893 0.177450 4.263168 
1 0.826000 0.360419 -0.075554 0.901209 0.411438 
1 0.099346 0.063711 -0.021149 0.118020 0.570238 
1 0.264062 -0.170737 0.235317 0.314452 5.709219 
1 -0.837004 -0.221545 -0.116667 0.865828 3.400347 
1 -0.435366 -0.045004 0.130124 0.437686 3.244597 
1 0.677604 0.179405 0.015803 0.700951 0.258825 
1 0.452128 -0.198726 0.215918 0.493874 5.869069 
1 -0.045619 -0.747466 -0.107853 0.748857 4.651433 
1 -0.249317 -0.628324 -0.072976 0.675981 4.334646 
1 0.191371 -0.159893 -0.029948 0.249377 5.587163 
1 0.103805 0.839890 -0.084831 0.846281 1.447826 
1 -0.343433 -0.836261 -0.074820 0.904035 4.322712 
1 -0.522390 -0.806404 0.044320 0.960821 4.137560 
1 0.778557 -0.394518 -0.030220 0.872809 5.814168 
1 -0.174500 -0.424096 0.157383 0.458593 4.322040 
1 0.188796 0.900292 -0.008755 0.919875 1.364087 
1 0.566945 0.768786 0.210064 0.955227 0.935373 
1 -0.815681 0.363367 0.070540 0.892956 2.722507 
1 0.156065 -0.638851 -0.109470 0.657637 4.951986 
1 0.044806 0.374038 -0.026483 0.376712 1.451576 
1 -0.246903 -0.106213 -0.111883 0.268780 3.547845 
1 0.401357 -0.253764 -0.165196 0.474851 5.719379 
1 -0.192560 -0.010650 -0.186962 0.192854 3.196842 
1 0.723067 -0.304140 0.242376 0.784428 5.885026 
1 0.007346 -0.715963 -0.058406 0.716001 4.722649 
1 0.037325 0.430181 -0.102920 0.431797 1.484247 
1 0.352860 0.517122 -0.127794 0.626040 0.972012 
1 0.212595 -0.728549 -0.187263 0.758934 4.996311 
1 0.214238 0.124312 0.122536 0.247692 0.525772 
1 -0.945333 -0.136193 -0.223735 0.955094 3.284677 
1 0.089833 -0.242484 -0.129969 0.258590 5.067180 
1 0.745142 -0.146406 0.078282 0.759389 6.089175 
1 0.557509 0.381446 0.129867 0.675512 0.600041 
1 0.187694 0.117449 0.010105 0.221412 0.559137 
1 -0.161423 0.022003 -0.147672 0.162916 3.006121 
1 0.037050 -0.836890 0.036659 0.837710 4.756631 
2 0.146745 -0.000006 -0.171096 0.146745 6.283145 
1 0.190614 0.210387 0.194978 0.283896 0.834667 
1 0.690858 -0.720248 -0.222971 0.998019 5.476962 
1 0.153536 -0.060691 -0.247919 0.165096 5.906745 
1 0.321681 0.546914 -0.159814 0.634503 1.039117 
1 0.201506 -0.405180 0.206513 0.452521 5.173893 
1 -0.366265 -0.211982 0.026243 0.423186 3.666252 
1 0.405217 0.305239 0.093694 0.507318 0.645592 
1 -0.202068 0.541237 0.128647 0.577727 1.928116 
1 0.718550 -0.685381 0.038486 0.993006 5.521409 
1 0.752129 0.178534 0.064455 0.773028 0.233059 
1 0.693227 -0.342053 0.166619 0.773023 5.824815 
1 0.879493 -0.106723 0.165519 0.885944 6.162429 
1 0.766136 -0.071123 0.201683 0.769430 6.190617 
1 0.353085 0.604649 -0.001371 0.700192 1.042261 
1 0.746167 0.400827 0.194474 0.847011 0.492949 
1 -0.464013 -0.503543 -0.125978 0.684736 3.967823 
1 -0.136420 0.274157 0.100310 0.306223 2.032521 
1 0.348479 0.187880 -0.134286 0.395899 0.494470 
1 -0.382683 -0.549672 -0.138172 0.669765 4.104216 
1 -0.114374 0.547805 0.235733 0.559617 1.776626 
1 0.441751 0.393350 0.109634 0.591496 0.727505 
1 0.495813 -0.170577 0.046270 0.524335 5.951835 
1 0.299354 -0.407734 -0.081824 0.505826 5.345694 
1 -0.284189 0.400473 -0.248384 0.491062 2.187959 
1 0.055781 0.636192 0.166622 0.638633 1.483340 
1 -0.704286 0.071718 -0.008525 0.707928 3.040111 
1 0.143355 0.345933 0.106044 0.374460 1.177938 
1 -0.570118 0.331799 -0.229568 0.659641 2.614526 
1 -0.464938 -0.558094 0.086968 0.726385 4.017799 
1 -0.312069 -0.269612 -0.157689 0.412404 3.854130 
1 -0.321738 0.581350 0.115365 0.664442 2.076270 
1 0.677507 -0.358253 -0.148894 0.766395 5.796778 
1 -0.041056 0.715103 0.076565 0.716281 1.628146 
1 -0.047514 0.577245 -0.206178 0.579197 1.652923 
1 0.735534 0.500458 0.093062 0.889646 0.597451 
1 -0.169435 -0.106541 -0.069200 0.200148 3.702922 
1 -0.161600 0.612946 0.083278 0.633890 1.828576 
1 -0.389907 0.696477 -0.105810 0.798191 2.081153 
1 0.270060 0.019672 0.242182 0.270776 0.072716 
1 0.312606 0.784675 -0.084260 0.844652 1.191679 
1 0.435143 -0.231406 0.229318 0.492847 5.794428 
1 0.565227 0.549607 0.099538 0.788384 0.771388 
1 0.117247 -0.707559 -0.058084 0.717207 4.876603 
1 0.618995 -0.719002 0.208136 0.948746 5.423182 
1 -0.266077 -0.096960 0.146828 0.283193 3.491042 
1 0.316016 -0.187706 0.202466 0.367560 5.747206 
1 -0.783409 -0.415087 -0.000928 0.886581 3.628832 
1 0.172890 -0.175675 -0.113044 0.246481 5.489797 
1 0.324027 -0.435922 -0.018169 0.543159 5.351597 
1 0.222612 0.498973 -0.104473 0.546380 1.151157 
1 0.453047 0.554132 0.113775 0.715761 0.885428 
1 0.345529 -0.542032 -0.003789 0.642798 5.279904 
1 0.123753 0.741572 -0.160896 0.751827 1.405440 
1 0.346995 0.425013 -0.189371 0.548673 0.886114 
1 0.390511 -0.166178 -0.087596 0.424398 5.880857 
1 0.482429 -0.780588 0.061048 0.917636 5.265963 
1 -0.432180 0.715991 -0.001963 0.836315 2.113866 
1 -0.345833 -0.295514 0.079416 0.454894 3.848692 
1 0.293336 0.157649 -0.174385 0.333015 0.493145 
1 -0.140732 0.137944 0.073604 0.197063 2.366197 
1 0.295576 0.204533 -0.084307 0.359443 0.605323 
1 -0.414071 -0.251749 0.217247 0.484595 3.687863 
1 0.037320 -0.336854 0.079373 0.338915 4.822728 
1 0.406090 -0.353937 -0.171364 0.538684 5.566299 
1 0.165238 0.642181 0.008857 0.663099 1.318953 
1 0.297768 -0.522975 -0.036900 0.601805 5.229984 
1 -0.218344 0.399130 -0.127837 0.454950 2.071371 
1 0.753729 -0.063792 0.069327 0.756424 6.198751 
1 0.256825 0.312402 0.198780 0.404419 0.882726 
1 0.107757 -0.457182 -0.247296 0.469709 4.943863 
1 0.593636 0.531715 -0.103161 0.796948 0.730430 
1 0.835024 0.274488 0.110503 0.878981 0.317592 
1 -0.122000 -0.489212 0.243234 0.504195 4.467994 
1 0.201486 -0.208289 -0.013053 0.289795 5.481186 
1 -0.147205 0.111271 -0.200220 0.184527 2.494332 
1 0.145749 -0.341810 0.078560 0.371587 5.115447 
1 0.200844 0.086126 -0.224246 0.218532 0.405101 
1 -0.172853 -0.481880 0.140434 0.511944 4.367980 
1 -0.415917 -0.274446 -0.190444 0.498304 3.724866 
1 -0.508207 -0.356487 0.014950 0.620771 3.753298 
1 0.332742 -0.265564 -0.097857 0.425725 5.609600 
1 -0.401821 -0.343952 -0.165090 0.528926 3.849550 
1 -0.466296 -0.333309 0.059463 0.573172 3.762184 
1 0.274943 0.143829 0.164904 0.310291 0.481975 
1 0.076821 0.172632 0.211864 0.188954 1.152108 
1 0.255977 -0.468148 -0.137255 0.533560 5.212762 
1 0.269036 -0.241826 -0.071403 0.361746 5.551001 
1 -0.212057 -0.350698 0.157454 0.409826 4.168542 
1 0.042416 -0.125732 -0.121266 0.132694 5.037753 
1 -0.245096 0.616429 0.168052 0.663368 1.949238 
1 -0.218629 -0.203832 -0.150990 0.298908 3.891978 
1 0.055344 -0.190899 0.087303 0.198759 4.994567 
1 -0.612798 0.428087 -0.149824 0.747516 2.531821 
1 0.034263 0.382561 -0.032996 0.384092 1.481473 
1 0.243204 0.375254 0.016423 0.447173 0.995755 
1 -0.444063 0.403284 -0.242710 0.599858 2.404282 
1 -0.024351 -0.443282 -0.097296 0.443950 4.657511 
1 -0.312365 -0.119380 0.074829 0.334400 3.506643 
1 0.347229 -0.860193 0.092993 0.927632 5.096050 
1 -0.436407 -0.582774 -0.094025 0.728063 4.069628 
1 0.075611 -0.073437 0.016480 0.105404 5.512368 
1 -0.651085 -0.084937 0.071346 0.656602 3.271314 
1 -0.079132 -0.453790 -0.068923 0.460638 4.539745 
1 0.464528 0.677803 0.088906 0.821707 0.969975 
1 -0.032317 -0.125509 -0.218220 0.129603 4.460378 
1 -0.069289 -0.259773 0.059479 0.268855 4.451727 
1 0.610260 0.031020 -0.249437 0.611048 0.050787 
1 -0.200212 -0.316744 -0.119215 0.374715 4.148705 
1 -0.479728 0.727939 -0.159419 0.871800 2.153488 
1 -0.393006 -0.579997 0.189505 0.700606 4.116855 
1 0.138238 0.356010 0.192507 0.381907 1.200419 
1 0.127582 -0.204961 0.001730 0.241425 5.269167 
1 0.248107 0.663199 0.202085 0.708089 1.212809 
1 0.316852 -0.326639 0.103033 0.455069 5.482579 
1 0.543899 -0.235407 0.119480 0.592657 5.874716 
1 -0.289419 -0.110531 0.213288 0.309807 3.506404 
1 -0.886856 -0.311821 -0.002797 0.940078 3.479695 
1 0.377466 -0.866576 0.149823 0.945216 5.123190 
1 0.634972 -0.009779 0.078600 0.635048 6.267786 
1 0.668588 -0.663970 -0.087729 0.942267 5.501253 
1 0.045787 -0.628576 0.068885 0.630241 4.785103 
1 -0.071934 0.794630 0.147455 0.797879 1.661075 
1 0.313252 0.562613 -0.014718 0.643941 1.062762 
1 0.575371 -0.578540 0.182543 0.815941 5.495041 
1 -0.526753 -0.457927 -0.043759 0.697973 3.857208 
1 -0.616380 -0.161590 0.072801 0.637209 3.397982 
1 0.225082 0.062160 0.039511 0.233508 0.269449 
1 0.369729 -0.630395 0.009075 0.730819 5.242825 
1 -0.562911 0.026708 -0.193676 0.563544 3.094182 
1 0.228782 -0.510383 -0.225750 0.559314 5.133791 
1 -0.429156 0.122118 0.068828 0.446193 2.864365 
1 -0.010418 0.229347 -0.043461 0.229584 1.616190 
1 -0.084012 -0.458456 -0.241272 0.466090 4.531150 
1 -0.530532 -0.313724 0.156474 0.616349 3.675619 
1 0.502042 -0.005177 -0.011319 0.502068 6.272875 
1 -0.082125 -0.128914 -0.212870 0.152851 4.145171 
1 0.111440 0.627737 -0.138699 0.637552 1.395099 
1 -0.041842 -0.665906 0.211756 0.667219 4.649637 
1 0.313038 -0.410912 -0.030719 0.516567 5.363407 
1 0.775592 -0.561305 0.224455 0.957396 5.656722 
1 -0.767456 -0.188690 -0.083215 0.790312 3.382675 
1 0.286343 -0.079679 -0.011224 0.297222 6.011789 
1 0.510534 -0.096382 0.192159 0.519552 6.096595 
1 0.063472 -0.257687 -0.020981 0.265389 4.953897 
1 -0.045691 0.788480 0.202391 0.789803 1.628679 
200
Atoms. Timestep: 1
1 0.191702 -0.834431 -0.052809 0.856169 4.938210 
1 0.249866 0.779530 0.205824 0.818596 1.260609 
1 -0.091563 0.391126 0.134115 0.401700 1.800757 
1 -0.399372 -0.445861 -0.011301 0.598573 3.981937 
1 0.415095 -0.105556 0.006700 0.428306 6.034171 
1 -0.174118 -0.908032 0.067856 0.924576 4.522935 
1 0.221248 0.052716 0.053484 0.227442 0.233904 
1 0.129663 -0.291019 -0.181384 0.318598 5.131536 
1 0.142776 0.194168 -0.049528 0.241011 0.936758 
1 0.007180 0.197797 0.249462 0.197928 1.534513 
1 -0.414051 -0.379474 0.169556 0.561639 3.883444 
1 -0.357909 -0.078555 0.068776 0.366428 3.357649 
1 -0.161967 0.519564 0.236388 0.544225 1.872985 
1 0.114766 -0.785886 0.013372 0.794222 4.857398 
1 -0.116185 0.445298 0.195765 0.460206 1.826022 
1 0.374538 -0.183813 0.153862 0.417212 5.826947 
1 -0.151345 -0.059930 0.224664 0.162779 3.518630 
1 -0.061409 -0.166485 -0.153893 0.177450 4.359017 
1 0.823008 0.367201 -0.075554 0.901209 0.419664 
1 0.086852 0.079908 -0.021149 0.118020 0.743780 
1 0.270746 -0.159927 0.235317 0.314452 5.749639 
1 -0.834995 -0.229002 -0.116667 0.865828 3.409266 
1 -0.434150 -0.055528 0.130124 0.437686 3.268803 
1 0.675402 0.187524 0.015803 0.700951 0.270827 
1 0.456123 -0.189375 0.215918 0.493874 5.889657 
1 -0.037343 -0.747925 -0.107853 0.748857 4.662501 
1 -0.241338 -0.631432 -0.072976 0.675981 4.347314 
1 0.200229 -0.148650 -0.029948 0.249376 5.644566 
1 0.096105 0.840806 -0.084831 0.846281 1.456990 
1 -0.336543 -0.839058 -0.074820 0.904035 4.330938 
1 -0.516257 -0.810343 0.044320 0.960821 4.145147 
1 0.781952 -0.387744 -0.030220 0.872809 5.822850 
1 -0.164728 -0.427986 0.157383 0.458593 4.344975 
1 0.181581 0.901775 -0.008755 0.919875 1.372094 
1 0.561097 0.773065 0.210064 0.955227 0.942959 
1 -0.818722 0.356461 0.070540 0.892956 2.730958 
1 0.164592 -0.636707 -0.109470 0.657637 4.965356 
1 0.033243 0.375242 -0.026483 0.376712 1.482436 
1 -0.241105 -0.118790 -0.111883 0.268780 3.599374 
1 0.406776 -0.244983 -0.165196 0.474851 5.741109 
1 -0.190994 -0.026721 -0.186962 0.192854 3.280594 
1 0.726134 -0.296743 0.242376 0.784428 5.895234 
1 0.015709 -0.715828 -0.058406 0.716000 4.734331 
1 0.026616 0.430976 -0.102920 0.431797 1.509116 
1 0.345327 0.522183 -0.127794 0.626040 0.986508 
1 0.220431 -0.726216 -0.187263 0.758934 5.007085 
1 0.206753 0.136398 0.122536 0.247691 0.583174 
1 -0.944273 -0.143360 -0.223735 0.955094 3.292263 
1 0.102881 -0.237242 -0.129969 0.258589 5.121567 
1 0.746676 -0.138370 0.078282 0.759389 6.099949 
1 0.552632 0.388477 0.129867 0.675512 0.612708 
1 0.179346 0.129840 0.010105 0.221412 0.626628 
1 -0.162848 0.004675 -0.147672 0.162915 3.112895 
1 0.044717 -0.836515 0.036659 0.837710 4.765795 
2 0.146745 -0.000006 -0.171096 0.146745 6.283145 
1 0.180682 0.218977 0.194978 0.283896 0.880925 
1 0.696017 -0.715264 -0.222971 0.998019 5.484150 
1 0.159129 -0.043983 -0.247919 0.165095 6.013519 
1 0.313932 0.551399 -0.159814 0.634503 1.053228 
1 0.210996 -0.400320 0.206513 0.452521 5.197455 
1 -0.360730 -0.221269 0.026243 0.423186 3.691801 
1 0.399186 0.313085 0.093694 0.507318 0.665099 
1 -0.210782 0.537903 0.128647 0.577727 1.944265 
1 0.723458 -0.680198 0.038486 0.993006 5.528597 
1 0.750216 0.186412 0.064455 0.773028 0.243546 
1 0.696776 -0.334764 0.166619 0.773023 5.835302 
1 0.880363 -0.099287 0.165519 0.885944 6.170880 
1 0.766840 -0.063085 0.201683 0.769430 6.201104 
1 0.345803 0.608843 -0.001371 0.700192 1.054263 
1 0.742462 0.407648 0.194474 0.847011 0.502112 
1 -0.457598 -0.509380 -0.125978 0.684736 3.980491 
1 -0.147684 0.268258 0.100310 0.306223 2.074046 
1 0.342991 0.197720 -0.134286 0.395899 0.522930 
1 -0.375497 -0.554605 -0.138172 0.669765 4.117230 
1 -0.123694 0.545776 0.235733 0.559617 1.793670 
1 0.435513 0.400245 0.109634 0.591496 0.743224 
1 0.498881 -0.161385 0.046270 0.524335 5.970316 
1 0.307250 -0.401817 -0.081824 0.505826 5.365200 
1 -0.292373 0.394537 -0.248384 0.491062 2.208547 
1 0.047038 0.636899 0.166622 0.638633 1.497076 
1 -0.705096 0.063261 -0.008525 0.707928 3.052113 
1 0.132613 0.350192 0.106044 0.374460 1.208798 
1 -0.574503 0.324148 -0.229568 0.659641 2.627896 
1 -0.458562 -0.563344 0.086968 0.726385 4.029170 
1 -0.304686 -0.277928 -0.157689 0.412404 3.881096 
1 -0.329276 0.577114 0.115365 0.664442 2.089284 
1 0.681226 -0.351129 -0.148894 0.766395 5.807265 
1 -0.049407 0.714575 0.076565 0.716281 1.639828 
1 -0.056830 0.576402 -0.206178 0.579197 1.669073 
1 0.731279 0.506656 0.093062 0.889646 0.605901 
1 -0.160456 -0.119637 -0.069200 0.200148 3.782274 
1 -0.170233 0.610604 0.083278 0.633890 1.842687 
1 -0.396808 0.692569 -0.105810 0.798190 2.091089 
1 0.268734 0.033188 0.242182 0.270776 0.122874 
1 0.305403 0.787506 -0.084260 0.844652 1.200842 
1 0.439815 -0.222399 0.229318 0.492847 5.815017 
1 0.559588 0.555348 0.099538 0.788384 0.781596 
1 0.125505 -0.706141 -0.058084 0.717207 4.888286 
1 0.624432 -0.714286 0.208136 0.948746 5.430769 
1 -0.261171 -0.109490 0.146828 0.283193 3.538565 
1 0.321808 -0.177595 0.202466 0.367559 5.778911 
1 -0.779873 -0.421692 -0.000928 0.886581 3.637283 
1 0.182684 -0.165467 -0.113044 0.246481 5.547200 
1 0.331610 -0.430181 -0.018169 0.543159 5.369108 
1 0.213841 0.502795 -0.104473 0.546380 1.168668 
1 0.446542 0.559386 0.113775 0.715761 0.897110 
1 0.352941 -0.537235 -0.003789 0.642798 5.293640 
1 0.115757 0.742862 -0.160896 0.751827 1.416214 
1 0.339500 0.431024 -0.189371 0.548673 0.903625 
1 0.394629 -0.156148 -0.087596 0.424398 5.906406 
1 0.488664 -0.776701 0.061048 0.917636 5.273969 
1 -0.438722 0.712001 -0.001963 0.836315 2.123030 
1 -0.338965 -0.303367 0.079416 0.454894 3.871627 
1 0.287257 0.168471 -0.174385 0.333015 0.530421 
1 -0.151497 0.126026 0.073604 0.197063 2.447720 
1 0.288759 0.214050 -0.084307 0.359442 0.637894 
1 -0.408654 -0.260450 0.217247 0.484595 3.709014 
1 0.049515 -0.335279 0.079373 0.338915 4.859012 
1 0.412391 -0.346575 -0.171364 0.538684 5.584289 
1 0.156867 0.644277 0.008857 0.663099 1.331966 
1 0.305735 -0.518358 -0.036900 0.601805 5.245285 
1 -0.227440 0.394018 -0.127837 0.454949 2.094306 
1 0.754373 -0.055668 0.069327 0.756424 6.209525 
1 0.248073 0.319396 0.198780 0.404419 0.910429 
1 0.117936 -0.454662 -0.247296 0.469709 4.966187 
1 0.588324 0.537587 -0.103161 0.796948 0.740366 
1 0.832609 0.281727 0.110503 0.878981 0.326274 
1 -0.112172 -0.491558 0.243234 0.504195 4.488034 
1 0.210657 -0.199009 -0.013053 0.289794 5.526212 
1 -0.156453 0.097841 -0.200220 0.184527 2.582728 
1 0.156510 -0.337018 0.078560 0.371587 5.147151 
1 0.194395 0.099834 -0.224246 0.218532 0.474438 
1 -0.163421 -0.485160 0.140434 0.511944 4.387486 
1 -0.410334 -0.282725 -0.190444 0.498304 3.744906 
1 -0.502986 -0.363817 0.014950 0.620771 3.767795 
1 0.339418 -0.256977 -0.097857 0.425725 5.635148 
1 -0.395396 -0.351319 -0.165090 0.528926 3.868032 
1 -0.460852 -0.340796 0.059463 0.573172 3.778334 
1 0.268735 0.155119 0.164904 0.310290 0.523500 
1 0.061702 0.178595 0.211864 0.188953 1.238151 
1 0.264357 -0.463467 -0.137255 0.533560 5.230751 
1 0.276769 -0.232936 -0.071403 0.361746 5.583573 
1 -0.202524 -0.356288 0.157454 0.409826 4.195507 
1 0.060446 -0.118127 -0.121266 0.132694 5.185354 
1 -0.253097 0.613187 0.168052 0.663368 1.962251 
1 -0.209489 -0.213215 -0.150990 0.298908 3.935806 
1 0.070302 -0.185911 0.087303 0.198759 5.073919 
1 -0.617498 0.421279 -0.149824 0.747516 2.542890 
1 0.022757 0.383417 -0.032996 0.384092 1.511512 
1 0.234296 0.380880 0.016423 0.447173 1.019317 
1 -0.450181 0.396442 -0.242710 0.599858 2.419583 
1 -0.013614 -0.443742 -0.097296 0.443950 4.681718 
1 -0.307829 -0.130633 0.074829 0.334400 3.542927 
1 0.354105 -0.857386 0.092993 0.927632 5.104057 
1 -0.429752 -0.587699 -0.094025 0.728063 4.081000 
1 0.089236 -0.056095 0.016480 0.105403 5.721989 
1 -0.649892 -0.093634 0.071346 0.656602 3.284684 
1 -0.068705 -0.455486 -0.068923 0.460638 4.562679 
1 0.458126 0.682146 0.088906 0.821707 0.979389 
1 -0.012987 -0.128950 -0.218220 0.129602 4.612016 
1 -0.055817 -0.262997 0.059479 0.268855 4.503257 
1 0.609730 0.040105 -0.249437 0.611048 0.065680 
1 -0.190343 -0.322770 -0.119215 0.374715 4.179565 
1 -0.486030 0.723747 -0.159419 0.871800 2.162170 
1 -0.386016 -0.584671 0.189505 0.700606 4.128857 
1 0.127483 0.360001 0.192507 0.381906 1.230458 
1 0.139758 -0.196860 0.001730 0.241425 5.329753 
1 0.240130 0.666129 0.202085 0.708089 1.224811 
1 0.324259 -0.319287 0.103033 0.455069 5.505514 
1 0.547532 -0.226828 0.119480 0.592657 5.890435 
1 -0.284581 -0.122450 0.213288 0.309807 3.547929 
1 -0.884399 -0.318724 -0.002797 0.940078 3.487489 
1 0.384208 -0.863607 0.149823 0.945216 5.130983 
1 0.635047 -0.000818 0.078600 0.635048 6.281897 
1 0.673743 -0.658739 -0.087729 0.942267 5.509047 
1 0.054652 -0.627867 0.068885 0.630241 4.799214 
1 -0.079825 0.793876 0.147455 0.797879 1.671011 
1 0.305495 0.566862 -0.014718 0.643941 1.076498 
1 0.580939 -0.572948 0.182543 0.815941 5.504712 
1 -0.521219 -0.464216 -0.043759 0.697973 3.869209 
1 -0.614038 -0.170271 0.072801 0.637209 3.412093 
1 0.220780 0.076040 0.039511 0.233507 0.331692 
1 0.376873 -0.626150 0.009075 0.730819 5.254196 
1 -0.563277 0.017365 -0.193676 0.563544 3.110773 
1 0.237447 -0.506410 -0.225750 0.559314 5.150835 
1 -0.431914 0.111974 0.068828 0.446192 2.887928 
1 -0.025052 0.228213 -0.043461 0.229583 1.680136 
1 -0.073757 -0.460217 -0.241272 0.466090 4.553475 
1 -0.525928 -0.321381 0.156474 0.616349 3.690116 
2 0.502042 -0.005177 -0.011319 0.502068 6.272875 
1 -0.066247 -0.137748 -0.212870 0.152850 4.264115 
1 0.102572 0.629247 -0.138699 0.637552 1.409210 
1 -0.033172 -0.666394 0.211756 0.667219 4.662651 
1 0.320783 -0.404895 -0.030719 0.516567 5.382395 
1 0.779828 -0.555405 0.224455 0.957396 5.664308 
1 -0.765490 -0.196514 -0.083215 0.790312 3.392883 
1 0.289559 -0.067056 -0.011224 0.297222 6.055616 
1 0.512271 -0.086671 0.192159 0.519552 6.115583 
1 0.076661 -0.254075 -0.020981 0.265389 5.005427 
1 -0.053737 0.787973 0.202391 0.789803 1.638887 
200
Atoms. Timestep: 2
1 0.199147 -0.832686 -0.052809 0.856169 4.947142 
1 0.242304 0.781913 0.205824 0.818596 1.270295 
1 -0.102378 0.388435 0.134115 0.401700 1.828500 
1 -0.392493 -0.451928 -0.011301 0.598573 3.997260 
1 0.417660 -0.094901 0.006700 0.428306 6.059757 
1 -0.166832 -0.909399 0.067856 0.924576 4.530954 
1 0.217304 0.067147 0.053484 0.227442 0.299695 
1 0.141026 -0.285685 -0.181384 0.318598 5.170937 
1 0.130739 0.202468 -0.049528 0.241011 0.997433 
1 -0.008975 0.197724 0.249462 0.197927 1.616155 
1 -0.407513 -0.386486 0.169556 0.561639 3.900514 
1 -0.355235 -0.089877 0.068776 0.366428 3.389400 
1 -0.171053 0.516644 0.236388 0.544225 1.890521 
1 0.122580 -0.784705 0.013372 0.794222 4.867349 
1 -0.126382 0.442512 0.195765 0.460206 1.848991 
1 0.379240 -0.173905 0.153862 0.417212 5.853233 
1 -0.144084 -0.075740 0.224664 0.162779 3.625561 
1 -0.045170 -0.171604 -0.153893 0.177449 4.455007 
1 0.819955 0.373968 -0.075554 0.901209 0.427902 
1 0.071725 0.093722 -0.021149 0.118018 0.917577 
1 0.276996 -0.148840 0.235317 0.314452 5.790117 
1 -0.832916 -0.236451 -0.116667 0.865828 3.418199 
1 -0.432676 -0.066036 0.130124 0.437686 3.293045 
1 0.673099 0.195628 0.015803 0.700951 0.282846 
1 0.459930 -0.179931 0.215918 0.493874 5.910276 
1 -0.029051 -0.748293 -0.107853 0.748857 4.673586 
1 -0.233309 -0.634442 -0.072976 0.675981 4.360000 
1 0.208439 -0.136900 -0.029948 0.249376 5.702053 
1 0.088385 0.841653 -0.084831 0.846281 1.466167 
1 -0.329619 -0.841802 -0.074820 0.904035 4.339176 
1 -0.510086 -0.814242 0.044320 0.960821 4.152744 
1 0.785294 -0.380930 -0.030220 0.872809 5.831545 
1 -0.154855 -0.431656 0.157383 0.458593 4.367944 
1 0.174344 0.903202 -0.008755 0.919875 1.380112 
1 0.555207 0.777305 0.210064 0.955227 0.950556 
1 -0.821710 0.349519 0.070540 0.892956 2.739421 
1 0.173102 -0.634446 -0.109470 0.657637 4.978745 
1 0.021632 0.376090 -0.026483 0.376712 1.513342 
1 -0.234656 -0.131068 -0.111883 0.268779 3.650980 
1 0.412011 -0.236074 -0.165196 0.474851 5.762871 
1 -0.188083 -0.042627 -0.186962 0.192853 3.364469 
1 0.729129 -0.289305 0.242376 0.784428 5.905457 
1 0.024083 -0.715595 -0.058406 0.716000 4.746030 
1 0.015876 0.431505 -0.102920 0.431797 1.534021 
1 0.337710 0.527141 -0.127794 0.626040 1.001027 
1 0.228254 -0.723796 -0.187263 0.758934 5.017875 
1 0.198574 0.148051 0.122536 0.247691 0.640661 
1 -0.943157 -0.150530 -0.223735 0.955094 3.299860 
1 0.115644 -0.231289 -0.129969 0.258589 5.176034 
1 0.748126 -0.130306 0.078282 0.759389 6.110739 
1 0.547660 0.395456 0.129867 0.675512 0.625394 
1 0.170167 0.141656 0.010105 0.221412 0.694218 
1 -0.162416 -0.012732 -0.147672 0.162915 3.219825 
1 0.052392 -0.836070 0.036659 0.837710 4.774972 
2 0.146745 -0.000006 -0.171096 0.146745 6.283145 
1 0.170347 0.227109 0.194978 0.283895 0.927250 
1 0.701148 -0.710235 -0.222971 0.998019 5.491349 
1 0.162913 -0.026748 -0.247919 0.165095 6.120449 
1 0.306109 0.555780 -0.159814 0.634503 1.067360 
1 0.220382 -0.395230 0.206513 0.452521 5.221052 
1 -0.354951 -0.230425 0.026243 0.423186 3.717387 
1 0.392994 0.320823 0.093694 0.507318 0.684634 
1 -0.219454 0.534424 0.128647 0.577727 1.960438 
1 0.728335 -0.674972 0.038486 0.993006 5.535795 
1 0.748216 0.194281 0.064455 0.773028 0.254048 
1 0.700253 -0.327428 0.166619 0.773023 5.845804 
1 0.881172 -0.091833 0.165519 0.885944 6.179344 
1 0.767460 -0.055028 0.201683 0.769430 6.211606 
1 0.338461 0.612955 -0.001371 0.700192 1.066282 
1 0.738690 0.414444 0.194474 0.847011 0.511289 
1 -0.451099 -0.515144 -0.125978 0.684736 3.993177 
1 -0.158708 0.261886 0.100310 0.306223 2.115631 
1 0.337217 0.207415 -0.134286 0.395899 0.551433 
1 -0.368237 -0.559452 -0.138172 0.669765 4.130263 
1 -0.132992 0.543585 0.235733 0.559617 1.810740 
1 0.429158 0.407051 0.109634 0.591496 0.758967 
1 0.501782 -0.152124 0.046270 0.524335 5.988825 
1 0.315040 -0.395739 -0.081824 0.505826 5.384736 
1 -0.300445 0.388425 -0.248384 0.491062 2.229166 
1 0.038273 0.637485 0.166622 0.638633 1.510831 
1 -0.705806 0.054781 -0.008525 0.707928 3.064133 
1 0.121728 0.354122 0.106044 0.374460 1.239704 
1 -0.578792 0.316427 -0.229568 0.659640 2.641285 
1 -0.452117 -0.568530 0.086968 0.726385 4.040558 
1 -0.297070 -0.286053 -0.157689 0.412404 3.908101 
1 -0.336769 0.572774 0.115365 0.664442 2.102317 
1 0.684876 -0.343955 -0.148894 0.766395 5.817767 
1 -0.057764 0.713948 0.076565 0.716281 1.651528 
1 -0.066144 0.575408 -0.206178 0.579197 1.685246 
1 0.726965 0.512827 0.093062 0.889645 0.614365 
1 -0.150452 -0.131997 -0.069200 0.200147 3.861742 
1 -0.178845 0.608138 0.083278 0.633890 1.856819 
1 -0.403679 0.688586 -0.105810 0.798190 2.101040 
1 0.266729 0.046639 0.242182 0.270775 0.173106 
1 0.298163 0.790276 -0.084260 0.844652 1.210019 
1 0.444307 -0.213284 0.229318 0.492847 5.835635 
1 0.553881 0.561039 0.099538 0.788384 0.791818 
1 0.133757 -0.704624 -0.058084 0.717207 4.899985 
1 0.629841 -0.709521 0.208136 0.948746 5.438366 
1 -0.255666 -0.121791 0.146828 0.283193 3.586158 
1 0.327283 -0.167289 0.202466 0.367559 5.810662 
1 -0.776276 -0.428277 -0.000928 0.886581 3.645746 
1 0.191889 -0.154697 -0.113044 0.246481 5.604687 
1 0.339103 -0.424300 -0.018169 0.543159 5.386645 
1 0.204991 0.506467 -0.104473 0.546380 1.186204 
1 0.439967 0.564572 0.113775 0.715761 0.908809 
1 0.360297 -0.532330 -0.003789 0.642798 5.307395 
1 0.107735 0.744068 -0.160896 0.751827 1.427004 
1 0.331890 0.436911 -0.189371 0.548673 0.921162 
1 0.398494 -0.146001 -0.087596 0.424398 5.931992 
1 0.494876 -0.772757 0.061048 0.917636 5.281988 
1 -0.445238 0.707945 -0.001963 0.836315 2.132206 
1 -0.331908 -0.311072 0.079416 0.454894 3.894596 
1 0.280769 0.179075 -0.174385 0.333015 0.567752 
1 -0.161270 0.113251 0.073604 0.197063 2.529362 
1 0.281624 0.223353 -0.084307 0.359442 0.670514 
1 -0.403046 -0.269047 0.217247 0.484595 3.730197 
1 0.061663 -0.333258 0.079373 0.338915 4.895349 
1 0.418568 -0.339089 -0.171364 0.538684 5.602305 
1 0.148457 0.646267 0.008857 0.663099 1.344999 
1 0.313641 -0.513612 -0.036900 0.601804 5.260608 
1 -0.236429 0.388691 -0.127837 0.454949 2.117275 
1 0.754930 -0.047526 0.069327 0.756424 6.220314 
1 0.239118 0.326155 0.198780 0.404418 0.938172 
1 0.128070 -0.451912 -0.247296 0.469709 4.988544 
1 0.582946 0.543415 -0.103161 0.796948 0.750316 
1 0.830128 0.288956 0.110503 0.878981 0.334968 
1 -0.102285 -0.493710 0.243234 0.504194 4.508103 
1 0.219413 -0.189311 -0.013053 0.289794 5.571304 
1 -0.164490 0.083625 -0.200220 0.184527 2.671254 
1 0.167130 -0.331880 0.078560 0.371587 5.178902 
1 0.186999 0.113081 -0.224246 0.218531 0.543876 
1 -0.153913 -0.488260 0.140434 0.511944 4.407022 
1 -0.404577 -0.290903 -0.190444 0.498304 3.764976 
1 -0.497651 -0.371080 0.014950 0.620771 3.782313 
1 0.345881 -0.248210 -0.097857 0.425725 5.660735 
1 -0.388826 -0.358577 -0.165090 0.528926 3.886541 
1 -0.455281 -0.348204 0.059463 0.573172 3.794506 
1 0.262053 0.166157 0.164904 0.310290 0.565086 
1 0.046102 0.183242 0.211864 0.188953 1.324320 
1 0.272663 -0.458629 -0.137255 0.533560 5.248768 
1 0.284218 -0.223785 -0.071403 0.361746 5.616192 
1 -0.192830 -0.361626 0.157454 0.409826 4.222512 
1 0.077184 -0.107935 -0.121266 0.132693 5.333172 
1 -0.261067 0.609837 0.168052 0.663368 1.975284 
1 -0.199932 -0.222201 -0.150990 0.298908 3.979697 
1 0.084839 -0.179743 0.087303 0.198759 5.153388 
1 -0.622130 0.414408 -0.149824 0.747516 2.553974 
1 0.011214 0.383928 -0.032996 0.384092 1.541595 
1 0.225244 0.386302 0.016423 0.447173 1.042914 
1 -0.456203 0.389498 -0.242710 0.599858 2.434907 
1 -0.002854 -0.443941 -0.097296 0.443950 4.705960 
1 -0.302880 -0.141729 0.074829 0.334400 3.579265 
1 0.360969 -0.854519 0.092993 0.927632 5.112075 
1 -0.423031 -0.592555 -0.094025 0.728063 4.092388 
1 0.098966 -0.036267 0.016480 0.105402 5.931919 
1 -0.648580 -0.102327 0.071346 0.656602 3.298073 
1 -0.058226 -0.456943 -0.068923 0.460638 4.585648 
1 0.451675 0.686434 0.088906 0.821707 0.988817 
1 0.006670 -0.129430 -0.218220 0.129601 4.763877 
1 -0.042177 -0.265525 0.059479 0.268854 4.554862 
1 0.609064 0.049195 -0.249437 0.611048 0.080596 
1 -0.180278 -0.328498 -0.119215 0.374715 4.210471 
1 -0.492304 0.719494 -0.159419 0.871800 2.170865 
1 -0.378961 -0.589269 0.189505 0.700606 4.140877 
1 0.116597 0.363672 0.192507 0.381906 1.260541 
1 0.151438 -0.188023 0.001730 0.241425 5.390427 
1 0.232106 0.668967 0.202085 0.708089 1.236830 
1 0.331506 -0.311755 0.103033 0.455069 5.528482 
1 0.551035 -0.218181 0.119480 0.592657 5.906178 
1 -0.279244 -0.134175 0.213288 0.309807 3.589515 
1 -0.881884 -0.325617 -0.002797 0.940078 3.495294 
1 0.390937 -0.860582 0.149823 0.945216 5.138789 
2 0.635047 -0.000818 0.078600 0.635048 6.281897 
1 0.678864 -0.653460 -0.087729 0.942267 5.516852 
1 0.063519 -0.627032 0.068885 0.630241 4.813345 
1 -0.087721 0.793042 0.147455 0.797879 1.680962 
1 0.297669 0.571011 -0.014718 0.643941 1.090253 
1 0.586461 -0.567295 0.182543 0.815941 5.514398 
1 -0.515602 -0.470447 -0.043759 0.697973 3.881229 
1 -0.611571 -0.178931 0.072801 0.637209 3.426225 
1 0.215614 0.089646 0.039511 0.233507 0.394026 
1 0.383979 -0.621818 0.009075 0.730819 5.265584 
1 -0.563487 0.008004 -0.193676 0.563544 3.127388 
1 0.246057 -0.502283 -0.225750 0.559314 5.167905 
1 -0.434436 0.101752 0.068828 0.446192 2.911524 
1 -0.039606 0.226141 -0.043461 0.229583 1.744175 
1 -0.063450 -0.461751 -0.241272 0.466090 4.575832 
1 -0.521207 -0.328983 0.156474 0.616349 3.704634 
2 0.502042 -0.005177 -0.011319 0.502068 6.272875 
1 -0.049408 -0.144644 -0.212870 0.152850 4.383233 
1 0.093669 0.630633 -0.138699 0.637552 1.423342 
1 -0.024485 -0.666769 0.211756 0.667219 4.675684 
1 0.328424 -0.398722 -0.030719 0.516567 5.401410 
1 0.784025 -0.549465 0.224455 0.957396 5.671906 
1 -0.763441 -0.204329 -0.083215 0.790312 3.403106 
1 0.292222 -0.054287 -0.011224 0.297222 6.099508 
1 0.513827 -0.076915 0.192159 0.519552 6.134598 
1 0.089664 -0.249782 -0.020981 0.265388 5.057032 
1 -0.061789 0.787382 0.202391 0.789803 1.649110 
200
Atoms. Timestep: 3
1 0.206577 -0.830874 -0.052809 0.856169 4.956075 
1 0.234719 0.784223 0.205824 0.818596 1.279981 
1 -0.113114 0.385446 0.134115 0.401700 1.856244 
1 -0.385522 -0.457889 -0.011301 0.598573 4.012583 