201 
Atoms. Timestep: 0
0 0.00 0.00 0.00 0.00 0.00 0.00 0.00 0.00 
1 0.0149 -0.0470 0.1415 0.0493 5.0187  0.0175 0.7504 0.0000 
1 -0.0581 0.0980 -0.1512 0.1139 2.1058  -0.0115 -0.1802 0.0000 
1 -0.0905 -0.0319 -0.1111 0.0960 3.4808  -0.0060 0.0424 0.0000 
1 -0.0393 0.0448 0.0644 0.0596 2.2911  -0.0192 -0.3608 0.0000 
1 0.0556 -0.0323 0.2261 0.0643 5.7576  0.0580 0.3996 0.0000 
1 0.0502 0.0617 0.1086 0.0795 0.8883  0.0325 -0.5373 0.0000 
1 0.0035 0.0758 -0.2418 0.0759 1.5247  -0.0008 -0.5285 0.0000 
1 0.0096 0.0143 0.1521 0.0172 0.9803  0.0142 -1.6333 0.0000 
1 0.0390 0.0317 -0.1851 0.0502 0.6822  0.0448 -0.5609 0.0000 
1 -0.1245 -0.0101 -0.1409 0.1249 3.2228  0.0000 -0.0000 0.0000 
1 -0.0298 0.1005 0.0563 0.1049 1.8593  -0.0075 -0.2951 0.0000 
1 -0.0796 0.0032 0.0121 0.0796 3.1013  -0.0221 0.0013 0.0000 
1 0.0164 -0.1205 -0.1037 0.1216 4.8475  0.0050 0.3562 0.0000 
1 -0.0533 0.0386 0.1350 0.0658 2.5143  -0.0199 -0.1716 0.0000 
1 -0.0668 0.0891 -0.1083 0.1114 2.2142  -0.0128 -0.1509 0.0000 
1  nan  nan  nan  nan  nan   nan  nan  nan 
1  nan  nan  nan  nan  nan   nan  nan  nan 
1 0.0186 -0.0153 0.0816 0.0241 5.5973  0.0279 1.4900 0.0000 
1 0.0434 0.0055 -0.2179 0.0437 0.1258  0.0514 -0.0022 0.0000 
1 0.0043 0.0570 -0.2185 0.0572 1.4954  -0.0004 -0.6786 0.0000 
1 0.0721 -0.0977 0.2011 0.1214 5.3477  0.0400 0.4689 0.0000 
1 -0.0235 0.0235 0.0199 0.0333 2.3562  -0.0221 -0.4993 0.0000 
1 -0.0469 -0.0826 0.0063 0.0950 4.1960  -0.0130 0.2054 0.0000 
1 -0.0614 0.0254 -0.2304 0.0664 2.7495  -0.0207 -0.1120 0.0000 
1 -0.0211 -0.1145 0.2154 0.1165 4.5306  -0.0046 0.2826 0.0000 
2 0.0524 -0.1663 0.1415 0.1743 5.0175  0.0180 0.3137 0.0000 
2 -0.1219 0.2055 -0.1512 0.2390 2.1063  -0.0000 0.0000 0.0000 
2 -0.2084 -0.0735 -0.1111 0.2210 3.4807  0.0000 0.0000 0.0000 
2 -0.1219 0.1387 0.0644 0.1847 2.2920  -0.0000 0.0000 0.0000 
2 0.1635 -0.0951 0.2261 0.1892 5.7566  0.0000 0.0000 0.0000 
2 0.1287 0.1588 0.1086 0.2045 0.8897  0.0000 0.0000 0.0000 
2 0.0091 0.2007 -0.2418 0.2009 1.5256  0.0001 -0.1938 0.0000 
2  nan  nan  nan  nan  nan   nan  nan  nan 
2 0.1358 0.1106 -0.1851 0.1751 0.6837  0.0000 0.0000 0.0000 
2 -0.2490 -0.0203 -0.1409 0.2499 3.2228  0.0000 0.0000 0.0000 
2 -0.0655 0.2203 0.0563 0.2299 1.8598  -0.0062 -0.1007 0.0000 
2 -0.2045 0.0083 0.0121 0.2047 3.1013  0.0000 0.0000 0.0000 
2 0.0331 -0.2444 -0.1037 0.2466 4.8471  0.0081 0.2084 0.0000 
2 -0.1546 0.1120 0.1350 0.1908 2.5147  0.0000 0.0000 0.0000 
2 -0.1419 0.1891 -0.1083 0.2364 2.2146  0.0000 0.0000 0.0000 
2 0.2046 0.0959 0.2095 0.2260 0.4383  0.0000 0.0000 0.0000 
2 0.2089 0.1254 0.0130 0.2437 0.5407  0.0000 0.0000 0.0000 
2  nan  nan  nan  nan  nan   nan  nan  nan 
2 0.1673 0.0212 -0.2179 0.1686 0.1258  0.0000 0.0000 0.0000 
2 0.0135 0.1817 -0.2185 0.1822 1.4966  0.0026 -0.2284 0.0000 
2 0.1459 -0.1984 0.2011 0.2463 5.3465  0.0000 0.0000 0.0000 
2 -0.1121 0.1118 0.0199 0.1583 2.3575  -0.0000 0.0000 0.0000 
2 -0.1087 -0.1913 0.0063 0.2200 4.1954  0.0000 0.0000 0.0000 
2 -0.1769 0.0731 -0.2304 0.1915 2.7498  -0.0000 0.0000 0.0000 
2 -0.0438 -0.2375 0.2154 0.2415 4.5302  -0.0043 0.1141 0.0000 
3 0.2538 0.2428 -0.2056 0.3512 0.7633  0.0000 0.0000 0.0000 
3 -0.0910 -0.2791 -0.0390 0.2935 4.3971  -0.0050 0.0354 0.0000 
3 -0.1609 -0.2021 0.0437 0.2583 4.0399  0.0000 0.0000 0.0000 
3 -0.0499 0.3705 -0.1021 0.3738 1.7047  -0.0036 -0.0666 0.0000 
3 -0.1910 0.1745 0.2248 0.2587 2.4013  -0.0000 0.0000 0.0000 
3 0.1594 -0.2426 0.2442 0.2903 5.2937  0.0000 0.0000 0.0000 
3 -0.2667 -0.0987 0.0483 0.2844 3.4961  0.0000 0.0000 0.0000 
3 -0.2846 0.2138 -0.1577 0.3560 2.4974  -0.0000 0.0000 0.0000 
3 -0.1491 0.3290 0.1752 0.3612 1.9964  0.0000 0.0000 0.0000 
3 -0.1611 -0.2077 -0.2275 0.2629 4.0526  0.0000 0.0000 0.0000 
3 -0.0356 -0.3487 0.1773 0.3505 4.6107  -0.0029 0.0804 0.0000 
3 0.2041 0.3034 -0.1486 0.3657 0.9786  0.0000 0.0000 0.0000 
3 -0.0139 -0.3279 -0.1154 0.3282 4.6701  -0.0010 0.1025 0.0000 
3 0.2751 0.0687 -0.1201 0.2835 0.2447  0.0000 0.0000 0.0000 
3 0.3166 -0.0227 -0.0852 0.3174 6.2115  0.0000 0.0000 0.0000 
3 0.3614 -0.0527 0.0761 0.3652 6.1384  0.0000 0.0000 0.0000 
3 -0.3093 -0.1541 0.2138 0.3455 3.6039  0.0000 0.0000 0.0000 
3 0.0151 -0.2897 0.1377 0.2901 4.7643  0.0011 0.1391 0.0000 
3 -0.2636 -0.2144 0.0826 0.3398 3.8245  -0.0000 0.0000 0.0000 
3 -0.1449 -0.2092 0.1341 0.2545 4.1066  -0.0000 0.0000 0.0000 
3 -0.3347 -0.0172 0.0361 0.3351 3.1929  -0.0000 0.0000 0.0000 
3 -0.0731 -0.2928 -0.0012 0.3018 4.4678  -0.0050 0.0698 0.0000 
3 0.3188 -0.0396 -0.1886 0.3213 6.1595  0.0000 0.0000 0.0000 
3 0.0179 0.2886 -0.0545 0.2892 1.5088  0.0019 -0.1439 0.0000 
3 -0.2663 -0.1247 0.2153 0.2941 3.5796  -0.0000 0.0000 0.0000 
4 -0.3784 0.1391 -0.0535 0.4031 2.7893  0.0000 0.0000 0.0000 
4 -0.3783 -0.1597 -0.1776 0.4106 3.5409  -0.0000 0.0000 0.0000 
4 0.0583 0.4796 0.1977 0.4831 1.4499  0.0075 -0.1277 0.0000 
4 0.1677 0.3360 -0.0197 0.3755 1.1079  0.0000 0.0000 0.0000 
4 0.2573 -0.3731 0.2224 0.4533 5.3161  0.0000 0.0000 0.0000 
4 0.3640 0.0953 -0.1215 0.3762 0.2561  0.0000 0.0000 0.0000 
4 -0.2878 0.3202 -0.1628 0.4305 2.3029  0.0000 0.0000 0.0000 
4 0.2548 0.2851 0.0312 0.3824 0.8416  0.0000 0.0000 0.0000 
4 -0.4805 -0.0646 0.0342 0.4848 3.2753  -0.0000 0.0000 0.0000 
4 0.0516 -0.3976 0.1844 0.4009 4.8414  0.0084 0.1487 0.0000 
4 0.2434 0.4032 -0.2031 0.4710 1.0277  0.0000 0.0000 0.0000 
4 -0.1439 0.3749 -0.0606 0.4015 1.9374  -0.0000 0.0000 0.0000 
4 0.1353 0.4522 -0.1283 0.4720 1.2801  0.0000 0.0000 0.0000 
4 -0.1927 -0.3227 -0.1263 0.3758 4.1741  0.0000 0.0000 0.0000 
4 -0.3078 -0.2521 0.1868 0.3979 3.8277  0.0000 0.0000 0.0000 
4 0.2527 -0.2820 0.1918 0.3786 5.4430  0.0000 0.0000 0.0000 
4 0.3712 0.0971 -0.0862 0.3837 0.2558  0.0000 0.0000 0.0000 
4 -0.3424 -0.2593 -0.0568 0.4295 3.7897  0.0000 0.0000 0.0000 
4 0.2111 0.3932 -0.1174 0.4463 1.0782  0.0000 0.0000 0.0000 
4 0.3741 0.0970 -0.0140 0.3864 0.2537  0.0000 0.0000 0.0000 
4 0.3212 0.3604 -0.1299 0.4827 0.8428  0.0000 0.0000 0.0000 
4 -0.3769 -0.0307 -0.0238 0.3782 3.2228  0.0000 0.0000 0.0000 
4 0.0169 -0.4164 -0.1359 0.4167 4.7529  0.0017 0.1020 0.0000 
4 0.4421 0.0108 -0.1326 0.4422 0.0245  0.0000 0.0000 0.0000 
4 0.2875 -0.2784 -0.0412 0.4002 5.5138  0.0000 0.0000 0.0000 
5 -0.0326 0.5157 -0.1544 0.5167 1.6340  -0.0017 -0.0566 0.0000 
5 -0.4613 0.2544 -0.0699 0.5268 2.6377  0.0000 0.0000 0.0000 
5 -0.2132 0.5413 -0.1528 0.5818 1.9461  0.0000 0.0000 0.0000 
5 -0.5087 -0.2421 -0.1927 0.5634 3.5858  -0.0000 0.0000 0.0000 
5 -0.1711 0.5581 0.2136 0.5838 1.8683  0.0000 0.0000 0.0000 
5 -0.0956 -0.5775 -0.2449 0.5853 4.5483  -0.0009 0.0105 0.0000 
5 0.2781 0.4297 -0.1332 0.5119 0.9964  0.0000 0.0000 0.0000 
5 -0.3454 0.4828 0.2089 0.5936 2.1918  0.0000 0.0000 0.0000 
5 -0.1710 -0.5153 -0.1202 0.5429 4.3920  -0.0000 0.0000 0.0000 
5 0.3539 -0.4015 0.0802 0.5352 5.4348  0.0000 0.0000 0.0000 
5 0.4924 0.1814 0.1472 0.5248 0.3530  0.0000 0.0000 0.0000 
5 -0.4821 0.2796 -0.2456 0.5573 2.6160  -0.0000 0.0000 0.0000 
5 -0.4681 -0.3908 0.0814 0.6098 3.8372  0.0000 0.0000 0.0000 
5 -0.0806 -0.5172 -0.1652 0.5235 4.5578  -0.0024 0.0429 0.0000 
5 -0.3419 -0.4867 0.1699 0.5948 4.0999  0.0000 0.0000 0.0000 
5 -0.2642 -0.4327 0.0112 0.5070 4.1641  -0.0000 0.0000 0.0000 
5 0.4751 -0.3623 0.0587 0.5975 5.6316  0.0000 0.0000 0.0000 
5 0.2419 -0.5679 -0.0668 0.6173 5.1151  0.0000 0.0000 0.0000 
5 0.4796 0.2391 0.1047 0.5359 0.4625  0.0000 0.0000 0.0000 
5 -0.0622 -0.6202 0.2456 0.6233 4.6124  -0.0022 0.0387 0.0000 
5 -0.5967 -0.1080 -0.1553 0.6064 3.3207  0.0000 0.0000 0.0000 
5 -0.5967 -0.1421 0.0739 0.6134 3.3754  -0.0000 0.0000 0.0000 
5 0.1670 0.5140 0.0129 0.5405 1.2567  0.0000 0.0000 0.0000 
5 -0.4213 0.4505 0.1068 0.6168 2.3227  0.0000 0.0000 0.0000 
5 0.1466 0.5637 -0.0139 0.5825 1.3165  0.0000 0.0000 0.0000 
6 0.5527 0.3040 0.2464 0.6308 0.5028  0.0000 0.0000 0.0000 
6 -0.1228 0.6316 -0.2102 0.6435 1.7629  -0.0000 0.0000 0.0000 
6 0.5355 -0.4208 -0.0009 0.6811 5.6172  0.0000 0.0000 0.0000 
6 0.6169 -0.1120 -0.1127 0.6270 6.1036  0.0000 0.0000 0.0000 
6 -0.0251 0.6522 -0.0418 0.6527 1.6092  -0.0011 -0.0483 0.0000 
6 -0.5791 0.3378 -0.1141 0.6704 2.6136  0.0000 0.0000 0.0000 
6 -0.6377 0.1583 -0.0986 0.6570 2.8982  0.0000 0.0000 0.0000 
6 0.6045 0.3145 -0.1073 0.6814 0.4797  0.0000 0.0000 0.0000 
6 -0.5658 0.4577 0.2326 0.7277 2.4614  0.0000 0.0000 0.0000 
6 -0.6649 0.0952 0.2349 0.6717 2.9994  0.0000 0.0000 0.0000 
6 -0.6936 0.1318 -0.2419 0.7060 2.9539  0.0000 0.0000 0.0000 
6 -0.6813 -0.2203 -0.1681 0.7160 3.4543  -0.0000 0.0000 0.0000 
6 0.5978 0.1860 0.0562 0.6261 0.3017  0.0000 0.0000 0.0000 
6 -0.3253 0.6623 0.0640 0.7379 2.0274  0.0000 0.0000 0.0000 
6 -0.0499 -0.7326 0.1746 0.7343 4.6444  -0.0017 0.0353 0.0000 
6 0.6398 0.0443 -0.1437 0.6413 0.0692  0.0000 0.0000 0.0000 
6 -0.2708 0.6382 -0.0155 0.6933 1.9720  -0.0000 0.0000 0.0000 
6 -0.5081 -0.3655 0.2100 0.6260 3.7652  0.0000 0.0000 0.0000 
6 -0.5841 -0.2505 0.1209 0.6355 3.5468  -0.0000 0.0000 0.0000 
6 -0.6687 -0.1459 -0.1923 0.6845 3.3564  0.0000 0.0000 0.0000 
6 -0.7072 -0.2316 0.1319 0.7442 3.4580  -0.0000 0.0000 0.0000 
6 -0.1511 -0.6609 -0.0039 0.6779 4.4876  -0.0000 0.0000 0.0000 
6 -0.3454 0.6620 0.0006 0.7466 2.0517  0.0000 0.0000 0.0000 
6 0.6022 -0.1769 -0.0479 0.6276 5.9974  0.0000 0.0000 0.0000 
6 0.2215 -0.6302 -0.1107 0.6680 5.0503  0.0000 0.0000 0.0000 
7 -0.7136 0.4982 0.1499 0.8703 2.5322  0.0000 0.0000 0.0000 
7 -0.4656 -0.6015 0.1528 0.7606 4.0536  0.0000 0.0000 0.0000 
7 0.7765 -0.0827 -0.0951 0.7809 6.1771  0.0000 0.0000 0.0000 
7 0.5889 -0.5652 0.2219 0.8162 5.5183  0.0000 0.0000 0.0000 
7 0.1449 0.8348 -0.0417 0.8473 1.3990  0.0000 0.0000 0.0000 
7 -0.6047 -0.5522 -0.2269 0.8189 3.8816  -0.0000 0.0000 0.0000 
7 0.1314 -0.7923 -0.0565 0.8032 4.8767  0.0000 0.0000 0.0000 
7 -0.3504 0.7555 -0.1648 0.8328 2.0050  -0.0000 0.0000 0.0000 
7 0.6281 0.4773 0.0956 0.7889 0.6499  0.0000 0.0000 0.0000 
7 -0.6607 -0.5694 0.1511 0.8722 3.8529  0.0000 0.0000 0.0000 
7 -0.6527 0.3975 0.1324 0.7642 2.5946  -0.0000 0.0000 0.0000 
7 0.1598 0.7987 0.1749 0.8146 1.3733  0.0000 0.0000 0.0000 
7 -0.7579 -0.1370 -0.2014 0.7702 3.3204  0.0000 0.0000 0.0000 
7 -0.7565 0.1330 0.0635 0.7681 2.9675  0.0000 0.0000 0.0000 
7 0.5770 -0.4836 -0.0474 0.7529 5.5857  0.0000 0.0000 0.0000 
7 0.7169 -0.3091 0.2282 0.7807 5.8761  0.0000 0.0000 0.0000 
7 -0.3763 0.7710 -0.0592 0.8579 2.0248  0.0000 0.0000 0.0000 
7 -0.8290 0.0386 -0.2280 0.8299 3.0951  -0.0000 0.0000 0.0000 
7 0.3519 0.7955 -0.0725 0.8698 1.1543  0.0000 0.0000 0.0000 
7 0.7548 -0.0668 -0.0835 0.7578 6.1949  0.0000 0.0000 0.0000 
7 0.0038 -0.8344 -0.0268 0.8344 4.7169  0.0001 0.0451 0.0000 
7 -0.6140 -0.4496 0.2314 0.7610 3.7736  0.0000 0.0000 0.0000 
7 -0.2536 -0.7464 -0.1878 0.7884 4.3849  0.0000 0.0000 0.0000 
7 -0.3870 0.7617 -0.1154 0.8544 2.0409  0.0000 0.0000 0.0000 
7 -0.0985 -0.7823 -0.1039 0.7884 4.5871  -0.0012 0.0156 0.0000 
8 0.2163 0.9594 0.0463 0.9835 1.3491  0.0000 0.0000 0.0000 
8 0.8760 -0.0223 0.0074 0.8763 6.2577  0.0000 0.0000 0.0000 
8 0.8264 0.2995 0.0508 0.8790 0.3477  0.0000 0.0000 0.0000 
8 0.0855 -0.9370 -0.2053 0.9409 4.8033  0.0085 0.0937 0.0000 
8 0.5031 0.8374 0.1945 0.9769 1.0298  0.0000 0.0000 0.0000 
8 0.2171 -0.8754 0.1438 0.9019 4.9555  0.0000 0.0000 0.0000 
8 0.8341 0.2907 -0.0337 0.8833 0.3354  0.0000 0.0000 0.0000 
8 0.9130 0.0922 0.0049 0.9176 0.1007  0.0000 0.0000 0.0000 
8 0.0539 -0.9061 -0.0682 0.9077 4.7718  0.0036 0.0647 0.0000 
8 0.3667 0.7994 -0.2138 0.8795 1.1407  0.0000 0.0000 0.0000 
8 0.1421 -0.9296 0.2202 0.9404 4.8641  0.0000 0.0000 0.0000 
8 -0.2344 0.9384 0.2253 0.9672 1.8156  0.0000 0.0000 0.0000 
8 0.7469 -0.6137 0.2413 0.9667 5.5954  0.0000 0.0000 0.0000 
8 0.9659 -0.1226 0.0047 0.9736 6.1569  0.0000 0.0000 0.0000 
8 0.6414 -0.6928 -0.0876 0.9442 5.4593  0.0000 0.0000 0.0000 
8 -0.5344 -0.8031 0.0202 0.9646 4.1253  -0.0000 0.0000 0.0000 
8 0.7950 0.4983 0.0535 0.9382 0.5598  0.0000 0.0000 0.0000 
8 -0.7681 -0.5503 0.2239 0.9449 3.7633  -0.0000 0.0000 0.0000 
8 0.9209 -0.2203 -0.1454 0.9469 6.0484  0.0000 0.0000 0.0000 
8 0.8947 0.2003 -0.1274 0.9168 0.2202  0.0000 0.0000 0.0000 
8 0.9284 -0.1445 0.1340 0.9395 6.1288  0.0000 0.0000 0.0000 
8 0.8147 -0.4084 0.0028 0.9113 5.8185  0.0000 0.0000 0.0000 
8 0.7954 -0.5148 -0.1305 0.9474 5.7088  0.0000 0.0000 0.0000 
8 -0.8123 0.4606 -0.2361 0.9337 2.6258  0.0000 0.0000 0.0000 
8 -0.0425 -0.9302 0.0406 0.9312 4.6667  -0.0013 0.0285 0.0000 
201 
Atoms. Timestep: 1
0 0.00 0.00 0.00 0.00 0.00 0.00 0.00 0.00 
1 0.0152 -0.0471 0.1415 0.0495 5.0244  0.0356 1.5012 0.0000 
1  nan  nan  nan  nan  nan   nan  nan  nan 
1 -0.0905 -0.0320 -0.1111 0.0960 3.4811  -0.0160 0.0695 0.0000 
1 -0.0391 0.0448 0.0644 0.0595 2.2883  -0.0378 -0.7263 0.0000 
1 0.0556 -0.0323 0.2261 0.0643 5.7576  0.0000 0.0000 0.0000 
1 0.0502 0.0617 0.1086 0.0795 0.8883  0.0000 0.0000 0.0000 
1 0.0038 0.0758 -0.2418 0.0759 1.5207  -0.0011 -1.0524 0.0000 
1 0.0098 0.0143 0.1521 0.0173 0.9689  0.0218 -2.9524 0.0000 
1  nan  nan  nan  nan  nan   nan  nan  nan 
1 -0.1245 -0.0101 -0.1409 0.1249 3.2228  -0.0008 0.0001 0.0000 
1  nan  nan  nan  nan  nan   nan  nan  nan 
1 -0.0794 0.0032 0.0121 0.0795 3.1013  -0.0362 0.0052 0.0000 
1 0.0167 -0.1205 -0.1037 0.1216 4.8502  0.0103 0.7091 0.0000 
1 -0.0531 0.0386 0.1350 0.0656 2.5129  -0.0400 -0.3496 0.0000 
1  nan  nan  nan  nan  nan   nan  nan  nan 
1  nan  nan  nan  nan  nan  0.0000 0.0000 0.0000 
1  nan  nan  nan  nan  nan  0.0000 0.0000 0.0000 
1 0.0189 -0.0152 0.0816 0.0243 5.6078  0.0342 2.7761 0.0000 
1  nan  nan  nan  nan  nan   nan  nan  nan 
1 0.0046 0.0570 -0.2185 0.0572 1.4903  -0.0014 -1.3339 0.0000 
1 0.0721 -0.0977 0.2011 0.1214 5.3477  0.0000 0.0000 0.0000 
1 -0.0233 0.0235 0.0199 0.0331 2.3525  -0.0519 -0.9745 0.0000 
1 -0.0467 -0.0826 0.0063 0.0949 4.1975  -0.0257 0.4087 0.0000 
1 -0.0612 0.0254 -0.2304 0.0662 2.7486  -0.0431 -0.2167 0.0000 
1 -0.0208 -0.1146 0.2154 0.1164 4.5328  -0.0088 0.5635 0.0000 
2 0.0524 -0.1663 0.1415 0.1743 5.0175  0.0000 0.0000 0.0000 
2 -0.1219 0.2055 -0.1512 0.2390 2.1063  0.0000 0.0000 0.0000 
2  nan  nan  nan  nan  nan   nan  nan  nan 
2 -0.1219 0.1387 0.0644 0.1847 2.2920  0.0000 0.0000 0.0000 
2 0.1635 -0.0951 0.2261 0.1892 5.7566  0.0000 0.0000 0.0000 
2 0.1287 0.1588 0.1086 0.2045 0.8897  0.0000 0.0000 0.0000 
2 0.0091 0.2007 -0.2418 0.2009 1.5256  0.0000 0.0000 0.0000 
2  nan  nan  nan  nan  nan  0.0000 0.0000 0.0000 
2 0.1358 0.1106 -0.1851 0.1751 0.6837  0.0000 0.0000 0.0000 
2 -0.2490 -0.0203 -0.1409 0.2499 3.2228  0.0000 0.0000 0.0000 
2 -0.0655 0.2203 0.0563 0.2299 1.8598  0.0000 0.0000 0.0000 
2 -0.2045 0.0083 0.0121 0.2047 3.1013  0.0000 0.0000 0.0000 
2  nan  nan  nan  nan  nan   nan  nan  nan 
2 -0.1546 0.1120 0.1350 0.1908 2.5147  0.0000 0.0000 0.0000 
2 -0.1419 0.1891 -0.1083 0.2364 2.2146  0.0000 0.0000 0.0000 
2 0.2046 0.0959 0.2095 0.2260 0.4383  0.0000 0.0000 0.0000 
2 0.2089 0.1254 0.0130 0.2437 0.5407  0.0000 0.0000 0.0000 
2  nan  nan  nan  nan  nan  0.0000 0.0000 0.0000 
2 0.1673 0.0212 -0.2179 0.1686 0.1258  0.0000 0.0000 0.0000 
2 0.0135 0.1817 -0.2185 0.1822 1.4966  0.0000 0.0000 0.0000 
2 0.1459 -0.1984 0.2011 0.2463 5.3465  0.0000 0.0000 0.0000 
2 -0.1121 0.1118 0.0199 0.1583 2.3575  0.0000 0.0000 0.0000 
2 -0.1087 -0.1912 0.0063 0.2200 4.1954  -0.0244 0.0036 0.0000 
2 -0.1769 0.0731 -0.2304 0.1915 2.7498  0.0000 0.0000 0.0000 
2  nan  nan  nan  nan  nan   nan  nan  nan 
3 0.2538 0.2428 -0.2056 0.3512 0.7633  0.0000 0.0000 0.0000 
3 -0.0910 -0.2791 -0.0390 0.2935 4.3971  0.0000 0.0000 0.0000 
3  nan  nan  nan  nan  nan   nan  nan  nan 
3 -0.0499 0.3705 -0.1021 0.3738 1.7047  0.0000 0.0000 0.0000 
3 -0.1910 0.1745 0.2248 0.2587 2.4013  0.0000 0.0000 0.0000 
3 0.1594 -0.2426 0.2442 0.2903 5.2937  0.0000 0.0000 0.0000 
3 -0.2667 -0.0987 0.0483 0.2844 3.4961  0.0000 0.0000 0.0000 
3 -0.2846 0.2138 -0.1577 0.3560 2.4974  0.0000 0.0000 0.0000 
3 -0.1491 0.3290 0.1752 0.3612 1.9964  0.0000 0.0000 0.0000 
3  nan  nan  nan  nan  nan   nan  nan  nan 
3 -0.0352 -0.3473 0.1773 0.3491 4.6113  -0.3990 0.1578 0.0000 
3 0.2041 0.3034 -0.1486 0.3657 0.9786  0.0000 0.0000 0.0000 
3 -0.0139 -0.3279 -0.1154 0.3282 4.6701  0.0000 0.0000 0.0000 
3 0.2751 0.0687 -0.1201 0.2835 0.2447  0.0000 0.0000 0.0000 
3 0.3166 -0.0227 -0.0852 0.3174 6.2115  0.0000 0.0000 0.0000 
3 0.3614 -0.0527 0.0761 0.3652 6.1384  0.0000 0.0000 0.0000 
3 -0.3093 -0.1541 0.2138 0.3455 3.6039  0.0000 0.0000 0.0000 
3 0.0151 -0.2897 0.1377 0.2901 4.7643  0.0000 0.0000 0.0000 
3 -0.2636 -0.2144 0.0826 0.3398 3.8245  0.0000 0.0000 0.0000 
3  nan  nan  nan  nan  nan   nan  nan  nan 
3 -0.3347 -0.0172 0.0361 0.3351 3.1929  0.0000 0.0000 0.0000 
3 -0.0731 -0.2928 -0.0012 0.3018 4.4678  0.0000 0.0000 0.0000 
3 0.3188 -0.0396 -0.1886 0.3213 6.1595  0.0000 0.0000 0.0000 
3 0.0179 0.2886 -0.0545 0.2892 1.5088  0.0000 0.0000 0.0000 
3 -0.2663 -0.1247 0.2153 0.2941 3.5796  0.0000 0.0000 0.0000 
4 -0.3784 0.1391 -0.0535 0.4031 2.7893  0.0000 0.0000 0.0000 
4 -0.3783 -0.1597 -0.1776 0.4106 3.5409  0.0000 0.0000 0.0000 
4 0.0583 0.4796 0.1977 0.4831 1.4499  0.0000 0.0000 0.0000 
4 0.1677 0.3360 -0.0197 0.3755 1.1079  0.0000 0.0000 0.0000 
4 0.2573 -0.3731 0.2224 0.4533 5.3161  0.0000 0.0000 0.0000 
4 0.3640 0.0953 -0.1215 0.3762 0.2561  0.0000 0.0000 0.0000 
4 -0.2878 0.3202 -0.1628 0.4305 2.3029  0.0000 0.0000 0.0000 
4 0.2548 0.2851 0.0312 0.3824 0.8416  0.0000 0.0000 0.0000 
4 -0.4805 -0.0646 0.0342 0.4848 3.2753  0.0000 0.0000 0.0000 
4 0.0516 -0.3976 0.1844 0.4009 4.8414  0.0000 0.0000 0.0000 
4 0.2434 0.4032 -0.2031 0.4710 1.0277  0.0000 0.0000 0.0000 
4 -0.1439 0.3749 -0.0606 0.4015 1.9374  0.0000 0.0000 0.0000 
4 0.1353 0.4522 -0.1283 0.4720 1.2801  0.0000 0.0000 0.0000 
4  nan  nan  nan  nan  nan   nan  nan  nan 
4 -0.3078 -0.2521 0.1868 0.3979 3.8277  0.0000 0.0000 0.0000 
4 0.2527 -0.2820 0.1918 0.3786 5.4430  0.0000 0.0000 0.0000 
4 0.3712 0.0971 -0.0862 0.3837 0.2558  0.0000 0.0000 0.0000 
4 -0.3424 -0.2593 -0.0568 0.4295 3.7897  0.0000 0.0000 0.0000 
4 0.2111 0.3932 -0.1174 0.4463 1.0782  0.0000 0.0000 0.0000 
4 0.3741 0.0970 -0.0140 0.3864 0.2537  0.0000 0.0000 0.0000 
4 0.3212 0.3604 -0.1299 0.4827 0.8428  0.0000 0.0000 0.0000 
4 -0.3769 -0.0307 -0.0238 0.3782 3.2228  0.0000 0.0000 0.0000 
4 0.0169 -0.4164 -0.1359 0.4167 4.7529  0.0000 0.0000 0.0000 
4 0.4421 0.0108 -0.1326 0.4422 0.0245  0.0000 0.0000 0.0000 
4 0.2875 -0.2784 -0.0412 0.4002 5.5138  0.0000 0.0000 0.0000 
5 -0.0326 0.5157 -0.1544 0.5167 1.6340  0.0000 0.0000 0.0000 
5 -0.4613 0.2544 -0.0699 0.5268 2.6377  0.0000 0.0000 0.0000 
5 -0.2132 0.5413 -0.1528 0.5818 1.9461  0.0000 0.0000 0.0000 
5 -0.5087 -0.2421 -0.1927 0.5634 3.5858  0.0000 0.0000 0.0000 
5 -0.1711 0.5581 0.2136 0.5838 1.8683  0.0000 0.0000 0.0000 
5  nan  nan  nan  nan  nan   nan  nan  nan 
5 0.2781 0.4297 -0.1332 0.5119 0.9964  0.0000 0.0000 0.0000 
5 -0.3454 0.4828 0.2089 0.5936 2.1918  0.0000 0.0000 0.0000 
5 -0.1710 -0.5153 -0.1202 0.5429 4.3920  0.0000 0.0000 0.0000 
5 0.3539 -0.4015 0.0802 0.5352 5.4348  0.0000 0.0000 0.0000 
5 0.4924 0.1814 0.1472 0.5248 0.3530  0.0000 0.0000 0.0000 
5 -0.4821 0.2796 -0.2456 0.5573 2.6160  0.0000 0.0000 0.0000 
5 -0.4681 -0.3908 0.0814 0.6098 3.8372  0.0000 0.0000 0.0000 
5  nan  nan  nan  nan  nan   nan  nan  nan 
5 -0.3419 -0.4867 0.1699 0.5948 4.0999  0.0000 0.0000 0.0000 
5 -0.2642 -0.4327 0.0112 0.5070 4.1641  0.0000 0.0000 0.0000 
5 0.4751 -0.3623 0.0587 0.5975 5.6316  0.0000 0.0000 0.0000 
5 0.2419 -0.5679 -0.0668 0.6173 5.1151  0.0000 0.0000 0.0000 
5 0.4796 0.2391 0.1047 0.5359 0.4625  0.0000 0.0000 0.0000 
5 -0.0622 -0.6202 0.2456 0.6233 4.6124  0.0000 0.0000 0.0000 
5 -0.5967 -0.1080 -0.1553 0.6064 3.3207  0.0000 0.0000 0.0000 
5 -0.5967 -0.1421 0.0739 0.6134 3.3754  0.0000 0.0000 0.0000 
5 0.1670 0.5140 0.0129 0.5405 1.2567  0.0000 0.0000 0.0000 
5 -0.4213 0.4505 0.1068 0.6168 2.3227  0.0000 0.0000 0.0000 
5 0.1466 0.5637 -0.0139 0.5825 1.3165  0.0000 0.0000 0.0000 
6 0.5527 0.3040 0.2464 0.6308 0.5028  0.0000 0.0000 0.0000 
6 -0.1228 0.6316 -0.2102 0.6435 1.7629  0.0000 0.0000 0.0000 
6 0.5355 -0.4208 -0.0009 0.6811 5.6172  0.0000 0.0000 0.0000 
6 0.6169 -0.1120 -0.1127 0.6270 6.1036  0.0000 0.0000 0.0000 
6 -0.0251 0.6522 -0.0418 0.6527 1.6092  0.0000 0.0000 0.0000 
6 -0.5791 0.3378 -0.1141 0.6704 2.6136  0.0000 0.0000 0.0000 
6 -0.6377 0.1583 -0.0986 0.6570 2.8982  0.0000 0.0000 0.0000 
6 0.6045 0.3145 -0.1073 0.6814 0.4797  0.0000 0.0000 0.0000 
6 -0.5658 0.4577 0.2326 0.7277 2.4614  0.0000 0.0000 0.0000 
6 -0.6649 0.0952 0.2349 0.6717 2.9994  0.0000 0.0000 0.0000 
6 -0.6936 0.1318 -0.2419 0.7060 2.9539  0.0000 0.0000 0.0000 
6 -0.6813 -0.2203 -0.1681 0.7160 3.4543  0.0000 0.0000 0.0000 
6 0.5978 0.1860 0.0562 0.6261 0.3017  0.0000 0.0000 0.0000 
6 -0.3253 0.6623 0.0640 0.7379 2.0274  0.0000 0.0000 0.0000 
6 -0.0499 -0.7326 0.1746 0.7343 4.6444  0.0000 0.0000 0.0000 
6 0.6398 0.0443 -0.1437 0.6413 0.0692  0.0000 0.0000 0.0000 
6 -0.2708 0.6382 -0.0155 0.6933 1.9720  0.0000 0.0000 0.0000 
6 -0.5081 -0.3655 0.2100 0.6260 3.7652  0.0000 0.0000 0.0000 
6 -0.5841 -0.2505 0.1209 0.6355 3.5468  0.0000 0.0000 0.0000 
6 -0.6687 -0.1459 -0.1923 0.6845 3.3564  0.0000 0.0000 0.0000 
6 -0.7072 -0.2316 0.1319 0.7442 3.4580  0.0000 0.0000 0.0000 
6 -0.1511 -0.6609 -0.0039 0.6779 4.4876  0.0000 0.0000 0.0000 
6 -0.3454 0.6620 0.0006 0.7466 2.0517  0.0000 0.0000 0.0000 
6 0.6022 -0.1769 -0.0479 0.6276 5.9974  0.0000 0.0000 0.0000 
6 0.2215 -0.6302 -0.1107 0.6680 5.0503  0.0000 0.0000 0.0000 
7 -0.7136 0.4982 0.1499 0.8703 2.5322  0.0000 0.0000 0.0000 
7 -0.4656 -0.6015 0.1528 0.7606 4.0536  0.0000 0.0000 0.0000 
7 0.7765 -0.0827 -0.0951 0.7809 6.1771  0.0000 0.0000 0.0000 
7 0.5889 -0.5652 0.2219 0.8162 5.5183  0.0000 0.0000 0.0000 
7 0.1449 0.8348 -0.0417 0.8473 1.3990  0.0000 0.0000 0.0000 
7 -0.6047 -0.5522 -0.2269 0.8189 3.8816  0.0000 0.0000 0.0000 
7 0.1314 -0.7923 -0.0565 0.8032 4.8767  0.0000 0.0000 0.0000 
7 -0.3504 0.7555 -0.1648 0.8328 2.0050  0.0000 0.0000 0.0000 
7 0.6281 0.4773 0.0956 0.7889 0.6499  0.0000 0.0000 0.0000 
7 -0.6607 -0.5694 0.1511 0.8722 3.8529  0.0000 0.0000 0.0000 
7 -0.6527 0.3975 0.1324 0.7642 2.5946  0.0000 0.0000 0.0000 
7 0.1598 0.7987 0.1749 0.8146 1.3733  0.0000 0.0000 0.0000 
7 -0.7579 -0.1370 -0.2014 0.7702 3.3204  0.0000 0.0000 0.0000 
7 -0.7565 0.1330 0.0635 0.7681 2.9675  0.0000 0.0000 0.0000 
7 0.5770 -0.4836 -0.0474 0.7529 5.5857  0.0000 0.0000 0.0000 
7 0.7169 -0.3091 0.2282 0.7807 5.8761  0.0000 0.0000 0.0000 
7 -0.3763 0.7710 -0.0592 0.8579 2.0248  0.0000 0.0000 0.0000 
7 -0.8290 0.0386 -0.2280 0.8299 3.0951  0.0000 0.0000 0.0000 
7 0.3519 0.7955 -0.0725 0.8698 1.1543  0.0000 0.0000 0.0000 
7 0.7548 -0.0668 -0.0835 0.7578 6.1949  0.0000 0.0000 0.0000 
7 0.0038 -0.8344 -0.0268 0.8344 4.7169  0.0000 0.0000 0.0000 
7 -0.6140 -0.4496 0.2314 0.7610 3.7736  0.0000 0.0000 0.0000 
7 -0.2536 -0.7464 -0.1878 0.7884 4.3849  0.0000 0.0000 0.0000 
7 -0.3870 0.7617 -0.1154 0.8544 2.0409  0.0000 0.0000 0.0000 
7 -0.0985 -0.7823 -0.1039 0.7884 4.5871  0.0000 0.0000 0.0000 
8 0.2163 0.9594 0.0463 0.9835 1.3491  0.0000 0.0000 0.0000 
8 0.8760 -0.0223 0.0074 0.8763 6.2577  0.0000 0.0000 0.0000 
8 0.8264 0.2995 0.0508 0.8790 0.3477  0.0000 0.0000 0.0000 
8 0.0855 -0.9370 -0.2053 0.9409 4.8033  0.0000 0.0000 0.0000 
8 0.5031 0.8374 0.1945 0.9769 1.0298  0.0000 0.0000 0.0000 
8 0.2171 -0.8754 0.1438 0.9019 4.9555  0.0000 0.0000 0.0000 
8 0.8341 0.2907 -0.0337 0.8833 0.3354  0.0000 0.0000 0.0000 
8 0.9130 0.0922 0.0049 0.9176 0.1007  0.0000 0.0000 0.0000 
8 0.0539 -0.9061 -0.0682 0.9077 4.7718  0.0000 0.0000 0.0000 
8 0.3667 0.7994 -0.2138 0.8795 1.1407  0.0000 0.0000 0.0000 
8 0.1421 -0.9296 0.2202 0.9404 4.8641  0.0000 0.0000 0.0000 
8 -0.2344 0.9384 0.2253 0.9672 1.8156  0.0000 0.0000 0.0000 
8 0.7469 -0.6137 0.2413 0.9667 5.5954  0.0000 0.0000 0.0000 
8 0.9659 -0.1226 0.0047 0.9736 6.1569  0.0000 0.0000 0.0000 
8 0.6414 -0.6928 -0.0876 0.9442 5.4593  0.0000 0.0000 0.0000 
8 -0.5344 -0.8031 0.0202 0.9646 4.1253  0.0000 0.0000 0.0000 
8 0.7950 0.4983 0.0535 0.9382 0.5598  0.0000 0.0000 0.0000 
8 -0.7681 -0.5503 0.2239 0.9449 3.7633  0.0000 0.0000 0.0000 
8 0.9209 -0.2203 -0.1454 0.9469 6.0484  0.0000 0.0000 0.0000 
8 0.8947 0.2003 -0.1274 0.9168 0.2202  0.0000 0.0000 0.0000 
8 0.9284 -0.1445 0.1340 0.9395 6.1288  0.0000 0.0000 0.0000 
8 0.8147 -0.4084 0.0028 0.9113 5.8185  0.0000 0.0000 0.0000 
8 0.7954 -0.5148 -0.1305 0.9474 5.7088  0.0000 0.0000 0.0000 
8 -0.8123 0.4606 -0.2361 0.9337 2.6258  0.0000 0.0000 0.0000 
8 -0.0425 -0.9302 0.0406 0.9312 4.6667  0.0000 0.0000 0.0000 
201 
Atoms. Timestep: 2
0 0.00 0.00 0.00 0.00 0.00 0.00 0.00 0.00 
1 0.0152 -0.0471 0.1415 0.0495 5.0244  0.0000 0.0000 0.0000 
1  nan  nan  nan  nan  nan  0.0000 0.0000 0.0000 
1 -0.0905 -0.0320 -0.1111 0.0960 3.4811  0.0000 0.0000 0.0000 
1 -0.0391 0.0448 0.0644 0.0595 2.2883  0.0000 0.0000 0.0000 
1 0.0556 -0.0323 0.2261 0.0643 5.7576  0.0000 0.0000 0.0000 
1 0.0502 0.0617 0.1086 0.0795 0.8883  0.0000 0.0000 0.0000 
1 0.0038 0.0758 -0.2418 0.0759 1.5207  0.0000 0.0000 0.0000 
1 0.0098 0.0143 0.1521 0.0173 0.9689  0.0000 0.0000 0.0000 
1  nan  nan  nan  nan  nan  0.0000 0.0000 0.0000 
1 -0.1245 -0.0101 -0.1409 0.1249 3.2228  0.0000 0.0000 0.0000 
1  nan  nan  nan  nan  nan  0.0000 0.0000 0.0000 
1 -0.0794 0.0032 0.0121 0.0795 3.1013  0.0000 0.0000 0.0000 
1 0.0167 -0.1205 -0.1037 0.1216 4.8502  0.0000 0.0000 0.0000 
1 -0.0531 0.0386 0.1350 0.0656 2.5129  0.0000 0.0000 0.0000 
1  nan  nan  nan  nan  nan  0.0000 0.0000 0.0000 
1  nan  nan  nan  nan  nan  0.0000 0.0000 0.0000 
1  nan  nan  nan  nan  nan  0.0000 0.0000 0.0000 
1 0.0189 -0.0152 0.0816 0.0243 5.6078  0.0000 0.0000 0.0000 
1  nan  nan  nan  nan  nan  0.0000 0.0000 0.0000 
1 0.0046 0.0570 -0.2185 0.0572 1.4903  0.0000 0.0000 0.0000 
1 0.0721 -0.0977 0.2011 0.1214 5.3477  0.0000 0.0000 0.0000 
1 -0.0232 0.0235 0.0199 0.0330 2.3503  0.0000 0.0000 0.0000 
1 -0.0467 -0.0826 0.0063 0.0949 4.1975  0.0000 0.0000 0.0000 
1 -0.0612 0.0254 -0.2304 0.0662 2.7486  0.0000 0.0000 0.0000 
1 -0.0208 -0.1146 0.2154 0.1164 4.5328  0.0000 0.0000 0.0000 
2 0.0524 -0.1663 0.1415 0.1743 5.0175  0.0000 0.0000 0.0000 
2 -0.1219 0.2055 -0.1512 0.2390 2.1063  0.0000 0.0000 0.0000 
2  nan  nan  nan  nan  nan  0.0000 0.0000 0.0000 
2 -0.1219 0.1387 0.0644 0.1847 2.2920  0.0000 0.0000 0.0000 
2 0.1635 -0.0951 0.2261 0.1892 5.7566  0.0000 0.0000 0.0000 
2 0.1287 0.1588 0.1086 0.2045 0.8897  0.0000 0.0000 0.0000 
2 0.0091 0.2007 -0.2418 0.2009 1.5256  0.0000 0.0000 0.0000 
2  nan  nan  nan  nan  nan  0.0000 0.0000 0.0000 
2 0.1358 0.1106 -0.1851 0.1751 0.6837  0.0000 0.0000 0.0000 
2 -0.2490 -0.0203 -0.1409 0.2499 3.2228  0.0000 0.0000 0.0000 
2 -0.0655 0.2203 0.0563 0.2299 1.8598  0.0000 0.0000 0.0000 
2 -0.2045 0.0083 0.0121 0.2047 3.1013  0.0000 0.0000 0.0000 
2  nan  nan  nan  nan  nan  0.0000 0.0000 0.0000 
2 -0.1546 0.1120 0.1350 0.1908 2.5147  0.0000 0.0000 0.0000 
2 -0.1419 0.1891 -0.1083 0.2364 2.2146  0.0000 0.0000 0.0000 
2 0.2046 0.0959 0.2095 0.2260 0.4383  0.0000 0.0000 0.0000 
2 0.2089 0.1254 0.0130 0.2437 0.5407  0.0000 0.0000 0.0000 
2  nan  nan  nan  nan  nan  0.0000 0.0000 0.0000 
2 0.1673 0.0212 -0.2179 0.1686 0.1258  0.0000 0.0000 0.0000 
2 0.0135 0.1817 -0.2185 0.1822 1.4966  0.0000 0.0000 0.0000 
2 0.1459 -0.1984 0.2011 0.2463 5.3465  0.0000 0.0000 0.0000 
2 -0.1121 0.1118 0.0199 0.1583 2.3575  0.0000 0.0000 0.0000 
2 -0.1087 -0.1912 0.0063 0.2200 4.1954  0.0000 0.0000 0.0000 
2 -0.1769 0.0731 -0.2304 0.1915 2.7498  0.0000 0.0000 0.0000 
2  nan  nan  nan  nan  nan  0.0000 0.0000 0.0000 
3 0.2538 0.2428 -0.2056 0.3512 0.7633  0.0000 0.0000 0.0000 
3 -0.0910 -0.2791 -0.0390 0.2935 4.3971  0.0000 0.0000 0.0000 
3  nan  nan  nan  nan  nan  0.0000 0.0000 0.0000 
3 -0.0499 0.3705 -0.1021 0.3738 1.7047  0.0000 0.0000 0.0000 
3 -0.1910 0.1745 0.2248 0.2587 2.4013  0.0000 0.0000 0.0000 
3 0.1594 -0.2426 0.2442 0.2903 5.2937  0.0000 0.0000 0.0000 
3 -0.2667 -0.0987 0.0483 0.2844 3.4961  0.0000 0.0000 0.0000 
3 -0.2846 0.2138 -0.1577 0.3560 2.4974  0.0000 0.0000 0.0000 
3 -0.1491 0.3290 0.1752 0.3612 1.9964  0.0000 0.0000 0.0000 
3  nan  nan  nan  nan  nan  0.0000 0.0000 0.0000 
3 -0.0352 -0.3473 0.1773 0.3491 4.6113  0.0000 0.0000 0.0000 
3 0.2041 0.3034 -0.1486 0.3657 0.9786  0.0000 0.0000 0.0000 
3 -0.0139 -0.3279 -0.1154 0.3282 4.6701  0.0000 0.0000 0.0000 
3 0.2751 0.0687 -0.1201 0.2835 0.2447  0.0000 0.0000 0.0000 
3 0.3166 -0.0227 -0.0852 0.3174 6.2115  0.0000 0.0000 0.0000 
3 0.3614 -0.0527 0.0761 0.3652 6.1384  0.0000 0.0000 0.0000 
3 -0.3093 -0.1541 0.2138 0.3455 3.6039  0.0000 0.0000 0.0000 
3 0.0151 -0.2897 0.1377 0.2901 4.7643  0.0000 0.0000 0.0000 
3 -0.2636 -0.2144 0.0826 0.3398 3.8245  0.0000 0.0000 0.0000 
3  nan  nan  nan  nan  nan  0.0000 0.0000 0.0000 
3 -0.3347 -0.0172 0.0361 0.3351 3.1929  0.0000 0.0000 0.0000 
3 -0.0731 -0.2928 -0.0012 0.3018 4.4678  0.0000 0.0000 0.0000 
3 0.3188 -0.0396 -0.1886 0.3213 6.1595  0.0000 0.0000 0.0000 
3 0.0179 0.2886 -0.0545 0.2892 1.5088  0.0000 0.0000 0.0000 
3 -0.2663 -0.1247 0.2153 0.2941 3.5796  0.0000 0.0000 0.0000 
4 -0.3784 0.1391 -0.0535 0.4031 2.7893  0.0000 0.0000 0.0000 
4 -0.3783 -0.1597 -0.1776 0.4106 3.5409  0.0000 0.0000 0.0000 
4 0.0583 0.4796 0.1977 0.4831 1.4499  0.0000 0.0000 0.0000 
4 0.1677 0.3360 -0.0197 0.3755 1.1079  0.0000 0.0000 0.0000 
4 0.2573 -0.3731 0.2224 0.4533 5.3161  0.0000 0.0000 0.0000 
4 0.3640 0.0953 -0.1215 0.3762 0.2561  0.0000 0.0000 0.0000 
4 -0.2878 0.3202 -0.1628 0.4305 2.3029  0.0000 0.0000 0.0000 
4 0.2548 0.2851 0.0312 0.3824 0.8416  0.0000 0.0000 0.0000 
4 -0.4805 -0.0646 0.0342 0.4848 3.2753  0.0000 0.0000 0.0000 
4 0.0516 -0.3976 0.1844 0.4009 4.8414  0.0000 0.0000 0.0000 
4 0.2434 0.4032 -0.2031 0.4710 1.0277  0.0000 0.0000 0.0000 
4 -0.1439 0.3749 -0.0606 0.4015 1.9374  0.0000 0.0000 0.0000 
4 0.1353 0.4522 -0.1283 0.4720 1.2801  0.0000 0.0000 0.0000 
4  nan  nan  nan  nan  nan  0.0000 0.0000 0.0000 
4 -0.3078 -0.2521 0.1868 0.3979 3.8277  0.0000 0.0000 0.0000 
4 0.2527 -0.2820 0.1918 0.3786 5.4430  0.0000 0.0000 0.0000 