20
Atoms. Timestep: 0
1 0.204701 -0.831338 -0.052809 0.856169 4.953817  -0.000001 1.262964 0.000000 
1 0.237146 0.783493 0.205824 0.818596 1.276884  -0.000001 1.344977 0.000000 
1 -0.110893 0.386090 0.134115 0.401700 1.850488  -0.000017 3.970052 0.000000 
1 -0.387191 -0.456478 -0.011301 0.598573 4.008932  -0.000003 2.174923 0.000000 
1 0.419321 -0.087269 0.006700 0.428306 6.077995  -0.000013 3.584328 0.000000 
1 -0.161665 -0.910332 0.067856 0.924576 4.536632  -0.000001 1.121910 0.000000 
1 0.214233 0.076370 0.053484 0.227438 0.342436  -0.000155 9.059681 0.000000 
1 0.148739 -0.281746 -0.181384 0.318597 5.198120  -0.000041 5.485568 0.000000 
1 0.123024 0.207244 -0.049528 0.241008 1.035082  -0.000122 8.288460 0.000000 
1 -0.021399 0.196760 0.249462 0.197920 1.679125  -0.000301 11.617366 0.000000 
1 -0.402870 -0.391324 0.169556 0.561639 3.912454  -0.000004 2.382700 0.000000 
1 -0.352819 -0.098935 0.068776 0.366428 3.414984  -0.000025 4.559374 0.000000 
1 -0.177751 0.514378 0.236388 0.544225 1.903514  -0.000005 2.475255 0.000000 
1 0.128625 -0.783737 0.013372 0.794222 4.875057  -0.000001 1.417198 0.000000 
1 -0.133208 0.440505 0.195765 0.460206 1.864451  -0.000010 3.183201 0.000000 
1 0.382398 -0.166847 0.153862 0.417212 5.871767  -0.000014 3.674722 0.000000 
1 -0.136318 -0.088933 0.224664 0.162762 3.719649  -0.000667 15.654148 0.000000 
1 -0.035402 -0.173872 -0.153893 0.177439 4.511528  -0.000406 12.997862 0.000000 
1 0.817534 0.379231 -0.075554 0.901209 0.434330  -0.000001 1.175023 0.000000 
1 0.058373 0.102514 -0.021149 0.117969 1.053171  -0.001963 24.788902 0.000000 
20
Atoms. Timestep: 1
1 0.232064 -0.824119 -0.052809 0.856169 4.986872  -0.000002 1.262964 0.000000 
1 0.209425 0.791354 0.205824 0.818596 1.312086  -0.000002 1.344977 0.000000 
1 -0.150340 0.372505 0.134115 0.401699 1.954395  -0.000034 3.970055 0.000000 
1 -0.360594 -0.477767 -0.011301 0.598573 4.065856  -0.000007 2.174923 0.000000 
1 0.425651 -0.047605 0.006700 0.428305 6.171807  -0.000026 3.584330 0.000000 
1 -0.134869 -0.914686 0.067856 0.924576 4.565996  -0.000001 1.121910 0.000000 
1 0.190292 0.124553 0.053484 0.227430 0.579556  -0.000300 9.059800 0.000000 
1 0.187519 -0.257564 -0.181384 0.318595 5.341693  -0.000080 5.485582 0.000000 
1 0.075532 0.228860 -0.049528 0.241002 1.252016  -0.000238 8.288541 0.000000 
1 -0.079322 0.181313 0.249462 0.197905 1.983193  -0.000572 11.617713 0.000000 
1 -0.377699 -0.415670 0.169556 0.561639 3.974816  -0.000009 2.382700 0.000000 
1 -0.338531 -0.140234 0.068776 0.366427 3.534316  -0.000049 4.559380 0.000000 
1 -0.210678 0.501792 0.236388 0.544224 1.968298  -0.000010 2.475255 0.000000 
1 0.157601 -0.778428 0.013372 0.794222 4.912149  -0.000002 1.417198 0.000000 
1 -0.169403 0.427892 0.195765 0.460205 1.947764  -0.000019 3.183202 0.000000 
1 0.396652 -0.129354 0.153862 0.417211 5.967945  -0.000028 3.674725 0.000000 
1 -0.089587 -0.135850 0.224664 0.162730 4.129394  -0.001216 15.655400 0.000000 
1 0.024642 -0.175700 -0.153893 0.177420 4.851733  -0.000762 12.998426 0.000000 
1 0.805487 0.404190 -0.075554 0.901209 0.465084  -0.000001 1.175023 0.000000 
1 -0.015436 0.116878 -0.021149 0.117892 1.702104  -0.002918 24.794198 0.000000 
20
Atoms. Timestep: 2
1 0.259325 -0.815951 -0.052809 0.856169 5.020112  -0.000002 1.262964 0.000000 
1 0.181287 0.798270 0.205824 0.818596 1.347484  -0.000003 1.344977 0.000000 
1 -0.188371 0.354792 0.134115 0.401698 2.058884  -0.000051 3.970061 0.000000 
1 -0.332670 -0.497614 -0.011301 0.598572 4.123098  -0.000010 2.174924 0.000000 
1 0.428242 -0.007299 0.006700 0.428304 6.266143  -0.000039 3.584333 0.000000 
1 -0.107805 -0.918269 0.067856 0.924575 4.595523  -0.000002 1.121910 0.000000 
1 0.155481 0.165967 0.053484 0.227419 0.818007  -0.000430 9.059992 0.000000 
1 0.222623 -0.227903 -0.181384 0.318592 5.486069  -0.000118 5.485604 0.000000 
1 0.024210 0.239774 -0.049528 0.240993 1.470167  -0.000343 8.288672 0.000000 
1 -0.130211 0.149008 0.249462 0.197884 2.288976  -0.000792 11.618261 0.000000 
1 -0.350906 -0.438523 0.169556 0.561638 4.037526  -0.000013 2.382701 0.000000 
1 -0.319307 -0.179750 0.068776 0.366425 3.654315  -0.000073 4.559390 0.000000 
1 -0.242898 0.487012 0.236388 0.544224 2.033444  -0.000015 2.475256 0.000000 
1 0.186519 -0.772010 0.013372 0.794222 4.949448  -0.000003 1.417198 0.000000 
1 -0.204615 0.412214 0.195765 0.460204 2.031543  -0.000028 3.183204 0.000000 
1 0.407288 -0.090447 0.153862 0.417210 6.064661  -0.000041 3.674729 0.000000 
1 -0.027670 -0.160319 0.224664 0.162689 4.541479  -0.001561 15.657268 0.000000 
1 0.082148 -0.157225 -0.153893 0.177392 5.193863  -0.001032 12.999300 0.000000 
1 0.792603 0.428903 -0.075554 0.901209 0.496009  -0.000002 1.175023 0.000000 
1 -0.083196 0.083423 -0.021149 0.117818 2.354835  -0.002835 24.800646 0.000000 
20
Atoms. Timestep: 3
1 0.286246 -0.806900 -0.052809 0.856169 5.053287  -0.000003 1.262964 0.000000 
1 0.152977 0.804175 0.205824 0.818596 1.382814  -0.000004 1.344977 0.000000 
1 -0.224279 0.333255 0.134115 0.401696 2.163168  -0.000067 3.970068 0.000000 
1 -0.303713 -0.515797 -0.011301 0.598572 4.180228  -0.000014 2.174924 0.000000 
1 0.427030 0.032994 0.006700 0.428303 0.077110  -0.000051 3.584338 0.000000 
1 -0.080701 -0.921047 0.067856 0.924575 4.624993  -0.000002 1.121910 0.000000 
1 0.111965 0.197931 0.053484 0.227405 1.055998  -0.000536 9.060246 0.000000 
1 0.253039 -0.193571 -0.181384 0.318588 5.630163  -0.000154 5.485635 0.000000 
1 -0.028154 0.239331 -0.049528 0.240981 1.687895  -0.000433 8.288848 0.000000 
1 -0.168947 0.102982 0.249462 0.197859 2.594177  -0.000939 11.618956 0.000000 
1 -0.322790 -0.459612 0.169556 0.561638 4.100114  -0.000017 2.382702 0.000000 
1 -0.295541 -0.216611 0.068776 0.366422 3.774079  -0.000096 4.559404 0.000000 
1 -0.274027 0.470200 0.236388 0.544223 2.098463  -0.000019 2.475257 0.000000 
1 0.215122 -0.764533 0.013372 0.794222 4.986675  -0.000004 1.417198 0.000000 
1 -0.238327 0.393684 0.195765 0.460203 2.115158  -0.000037 3.183207 0.000000 
1 0.414108 -0.050773 0.153862 0.417209 6.161187  -0.000055 3.674734 0.000000 
1 0.038729 -0.157968 0.224664 0.162646 4.952814  -0.001638 15.659418 0.000000 
1 0.130035 -0.120615 -0.153893 0.177361 5.535351  -0.001182 13.000377 0.000000 
1 0.778990 0.453159 -0.075554 0.901209 0.526874  -0.000003 1.175023 0.000000 
1 -0.116694 0.015870 -0.021149 0.117768 3.006428  -0.001897 24.806003 0.000000 
20
Atoms. Timestep: 4
1 0.312873 -0.796954 -0.052809 0.856169 5.086488  -0.000004 1.262964 0.000000 
1 0.124454 0.809080 0.205824 0.818596 1.418170  -0.000005 1.344977 0.000000 
1 -0.257774 0.308075 0.134115 0.401694 2.267533  -0.000082 3.970078 0.000000 
1 -0.273743 -0.532309 -0.011301 0.598572 4.237403  -0.000017 2.174925 0.000000 
1 0.422030 0.073024 0.006700 0.428301 0.171335  -0.000063 3.584345 0.000000 
1 -0.053506 -0.923026 0.067856 0.924575 4.654486  -0.000003 1.121910 0.000000 
1 0.062100 0.218745 0.053484 0.227389 1.294181  -0.000612 9.060548 0.000000 
1 0.278226 -0.155195 -0.181384 0.318583 5.774370  -0.000187 5.485673 0.000000 
1 -0.079223 0.227573 -0.049528 0.240968 1.905797  -0.000503 8.289059 0.000000 
1 -0.192071 0.047401 0.249462 0.197833 2.899636  -0.000998 11.619734 0.000000 
1 -0.293388 -0.478916 0.169556 0.561637 4.162751  -0.000022 2.382703 0.000000 
1 -0.267518 -0.250393 0.068776 0.366419 3.893937  -0.000117 4.559421 0.000000 
1 -0.304021 0.451387 0.236388 0.544223 2.163533  -0.000024 2.475258 0.000000 
1 0.243449 -0.755990 0.013372 0.794221 5.023930  -0.000005 1.417198 0.000000 
1 -0.270397 0.372386 0.195765 0.460202 2.198839  -0.000046 3.183211 0.000000 
1 0.417073 -0.010595 0.153862 0.417207 6.257789  -0.000067 3.674741 0.000000 
1 0.098684 -0.129240 0.224664 0.162608 5.364523  -0.001439 15.661498 0.000000 
1 0.162911 -0.070043 -0.153893 0.177330 5.877135  -0.001192 13.001534 0.000000 
1 0.764623 0.477001 -0.075554 0.901209 0.557763  -0.000003 1.175023 0.000000 
1 -0.102363 -0.058204 -0.021149 0.117754 3.658602  -0.000546 24.808840 0.000000 
20
Atoms. Timestep: 5
1 0.339230 -0.786096 -0.052809 0.856169 5.119784  -0.000005 1.262964 0.000000 
1 0.095694 0.812983 0.205824 0.818596 1.453628  -0.000006 1.344977 0.000000 
1 -0.288548 0.279457 0.134115 0.401691 2.372197  -0.000097 3.970090 0.000000 
1 -0.242788 -0.547121 -0.011301 0.598571 4.294741  -0.000020 2.174926 0.000000 
1 0.413255 0.112518 0.006700 0.428299 0.265830  -0.000075 3.584352 0.000000 
1 -0.026186 -0.924204 0.067856 0.924575 4.684063  -0.000004 1.121910 0.000000 
1 0.008579 0.227210 0.053484 0.227372 1.533055  -0.000654 9.060881 0.000000 
1 0.297682 -0.113476 -0.181384 0.318577 5.918992  -0.000216 5.485719 0.000000 
1 -0.126668 0.204973 -0.049528 0.240954 2.124330  -0.000549 8.289298 0.000000 
1 -0.197398 -0.012730 0.249462 0.197808 3.205991  -0.000963 11.620525 0.000000 
1 -0.262745 -0.496388 0.169556 0.561637 4.225566  -0.000026 2.382704 0.000000 
1 -0.235560 -0.280663 0.068776 0.366415 4.014139  -0.000137 4.559443 0.000000 
1 -0.332808 0.430600 0.236388 0.544222 2.228789  -0.000029 2.475260 0.000000 
1 0.271518 -0.746368 0.013372 0.794221 5.061292  -0.000007 1.417198 0.000000 
1 -0.300659 0.348409 0.195765 0.460201 2.282758  -0.000055 3.183216 0.000000 
1 0.416140 0.029797 0.153862 0.417205 0.071482  -0.000079 3.674750 0.000000 
1 0.142231 -0.078763 0.224664 0.162583 5.777454  -0.000962 15.663121 0.000000 
1 0.177144 -0.007487 -0.153893 0.177302 6.240948  -0.001070 13.800023 0.000000 
1 0.749482 0.500454 -0.075554 0.901209 0.588741  -0.000004 1.175024 0.000000 
1 -0.045836 -0.108488 -0.021149 0.117773 4.312637  0.000745 24.808604 0.000000 
20
Atoms. Timestep: 6
1 0.365310 -0.774321 -0.052809 0.856168 5.153208  -0.000006 1.262964 0.000000 
1 0.066701 0.815873 0.205824 0.818595 1.489223  -0.000007 1.344978 0.000000 
1 -0.316262 0.247653 0.134115 0.401688 2.477266  -0.000111 3.970103 0.000000 
1 -0.210911 -0.560181 -0.011301 0.598570 4.352300  -0.000024 2.174927 0.000000 
1 0.400737 0.151154 0.006700 0.428297 0.360690  -0.000086 3.584361 0.000000 
1 0.001262 -0.924574 0.067856 0.924575 4.713754  -0.000004 1.121910 0.000000 
1 -0.045628 0.222729 0.053484 0.227354 1.772860  -0.000659 9.061229 0.000000 
1 0.310961 -0.069215 -0.181384 0.318571 6.064172  -0.000241 5.485771 0.000000 
1 -0.168229 0.172482 -0.049528 0.240939 2.343712  -0.000570 8.289553 0.000000 
1 -0.184261 -0.071883 0.249462 0.197786 3.513547  -0.000832 11.621251 0.000000 
1 -0.230942 -0.511958 0.169556 0.561636 4.288625  -0.000030 2.382706 0.000000 
1 -0.200061 -0.306974 0.068776 0.366411 4.134805  -0.000155 4.559467 0.000000 
1 -0.360281 0.407890 0.236388 0.544221 2.294297  -0.000033 2.475262 0.000000 
1 0.299314 -0.735662 0.013372 0.794221 5.098798  -0.000008 1.417198 0.000000 
1 -0.328908 0.321874 0.195765 0.460199 2.367002  -0.000063 3.183221 0.000000 
1 0.411278 0.070063 0.153862 0.417203 0.168734  -0.000091 3.674760 0.000000 
1 0.161900 -0.014804 0.224664 0.162575 6.192000  -0.000291 15.663982 0.000000 
1 0.168115 0.056273 -0.153893 0.177283 0.323005  -0.000699 13.800986 0.000000 
1 0.733560 0.523515 -0.075554 0.901209 0.619838  -0.000005 1.175024 0.000000 
1 0.029916 -0.113953 -0.021149 0.117815 4.969123  0.001572 24.805863 0.000000 
20
Atoms. Timestep: 7
1 0.390972 -0.761686 -0.052809 0.856168 5.186618  -0.000006 1.262964 0.000000 
1 0.037637 0.817729 0.205824 0.818595 1.524803  -0.000008 1.344978 0.000000 
1 -0.340478 0.213132 0.134115 0.401685 2.582290  -0.000123 3.970119 0.000000 
1 -0.178350 -0.571382 -0.011301 0.598570 4.409834  -0.000027 2.174928 0.000000 
1 0.384624 0.188415 0.006700 0.428294 0.455509  -0.000096 3.584371 0.000000 
1 0.028698 -0.924130 0.067856 0.924575 4.743433  -0.000005 1.121910 0.000000 
1 -0.097197 0.205512 0.053484 0.227338 2.012571  -0.000624 9.061568 0.000000 
1 0.317694 -0.023518 -0.181384 0.318564 6.209292  -0.000262 5.485828 0.000000 
1 -0.201710 0.131747 -0.049528 0.240924 2.563007  -0.000563 8.289811 0.000000 
1 -0.153856 -0.124263 0.249462 0.197770 3.820985  -0.000616 11.621836 0.000000 
1 -0.198235 -0.525487 0.169556 0.561635 4.351656  -0.000034 2.382707 0.000000 
1 -0.161670 -0.328811 0.068776 0.366407 4.255420  -0.000172 4.559494 0.000000 
1 -0.386198 0.383441 0.236388 0.544220 2.359776  -0.000037 2.475264 0.000000 
1 0.326677 -0.723926 0.013372 0.794221 5.136288  -0.000009 1.417199 0.000000 
1 -0.354813 0.293068 0.195765 0.460197 2.451210  -0.000071 3.183227 0.000000 
1 0.402533 0.109649 0.153862 0.417200 0.265944  -0.000102 3.674771 0.000000 
1 0.154171 0.051635 0.224664 0.162588 0.323179  0.000483 15.663850 0.000000 
1 0.136938 0.112584 -0.153893 0.177278 0.688103  -0.000218 13.801487 0.000000 
1 0.716935 0.546060 -0.075554 0.901209 0.650921  -0.000005 1.175024 0.000000 
1 0.093255 -0.072072 -0.021149 0.117859 5.625222  0.001672 24.801967 0.000000 
20
Atoms. Timestep: 8
1 0.416154 -0.748224 -0.052809 0.856168 5.219972  -0.000007 1.262964 0.000000 
1 0.008574 0.818550 0.205824 0.818595 1.560322  -0.000008 1.344978 0.000000 
1 -0.360911 0.176327 0.134115 0.401682 2.687138  -0.000134 3.970136 0.000000 
1 -0.145254 -0.580677 -0.011301 0.598569 4.467273  -0.000030 2.174929 0.000000 
1 0.365091 0.223924 0.006700 0.428291 0.550170  -0.000105 3.584383 0.000000 
1 0.056062 -0.922874 0.067856 0.924575 4.773061  -0.000005 1.121910 0.000000 
1 -0.143132 0.176604 0.053484 0.227323 2.251887  -0.000553 9.061879 0.000000 
1 0.317754 0.022593 -0.181384 0.318557 0.070984  -0.000276 5.485889 0.000000 
1 -0.225496 0.084788 -0.049528 0.240910 2.781941  -0.000528 8.290058 0.000000 
1 -0.109116 -0.164933 0.249462 0.197761 4.127918  -0.000331 11.622219 0.000000 
1 -0.164798 -0.536912 0.169556 0.561634 4.414581  -0.000038 2.382709 0.000000 
1 -0.121000 -0.345846 0.068776 0.366402 4.375833  -0.000185 4.559524 0.000000 
1 -0.410419 0.357394 0.236388 0.544219 2.425146  -0.000042 2.475266 0.000000 
1 0.353536 -0.711195 0.013372 0.794221 5.173715  -0.000010 1.417199 0.000000 
1 -0.378166 0.262239 0.195765 0.460195 2.535276  -0.000079 3.183234 0.000000 
1 0.390012 0.148135 0.153862 0.417197 0.362992  -0.000112 3.674783 0.000000 
1 0.120439 0.109271 0.224664 0.162621 0.736816  0.001251 15.662637 0.000000 
1 0.087814 0.154010 -0.153893 0.177286 1.052588  0.000311 13.801441 0.000000 
1 0.699647 0.568041 -0.075554 0.901209 0.681952  -0.000006 1.175024 0.000000 
1 0.117890 -0.000360 -0.021149 0.117891 6.280128  0.001211 24.798436 0.000000 
20
Atoms. Timestep: 9
1 0.440865 -0.733935 -0.052809 0.856168 5.253313  -0.000008 1.262965 0.000000 
1 -0.020489 0.818338 0.205824 0.818595 1.595829  -0.000009 1.344978 0.000000 
1 -0.377374 0.137601 0.134115 0.401678 2.791947  -0.000144 3.970154 0.000000 
1 -0.111693 -0.588055 -0.011301 0.598568 4.524689  -0.000033 2.174931 0.000000 
1 0.342298 0.257416 0.006700 0.428288 0.644795  -0.000114 3.584395 0.000000 
1 0.083367 -0.920809 0.067856 0.924575 4.802679  -0.000006 1.121910 0.000000 
1 -0.180894 0.137651 0.053484 0.227311 2.491121  -0.000447 9.062143 0.000000 
1 0.311160 0.068213 -0.181384 0.318549 0.215809  -0.000286 5.485953 0.000000 
1 -0.238514 0.033805 -0.049528 0.240897 3.000798  -0.000466 8.290284 0.000000 
1 -0.054205 -0.190187 0.249462 0.197761 4.434740  -0.000003 11.622353 0.000000 
1 -0.130721 -0.546208 0.169556 0.561633 4.477483  -0.000042 2.382712 0.000000 
1 -0.078595 -0.357868 0.068776 0.366397 4.496202  -0.000196 4.559556 0.000000 
1 -0.432880 0.329830 0.236388 0.544218 2.490491  -0.000046 2.475269 0.000000 
1 0.379890 -0.697474 0.013372 0.794220 5.211128  -0.000011 1.417199 0.000000 
1 -0.398841 0.229571 0.195765 0.460193 2.619312  -0.000086 3.183241 0.000000 
1 0.373827 0.185214 0.153862 0.417194 0.460004  -0.000121 3.674797 0.000000 
1 0.066413 0.148495 0.224664 0.162670 1.150240  0.001836 15.660437 0.000000 
1 0.027176 0.175212 -0.153893 0.177308 1.416919  0.000824 13.800827 0.000000 
1 0.681693 0.589467 -0.075554 0.901208 0.712972  -0.000007 1.175024 0.000000 
2 0.117890 -0.000360 -0.021149 0.117891 6.280128  0.000000 0.000000 0.000000 
20
Atoms. Timestep: 10
1 0.465137 -0.718798 -0.052809 0.856168 5.286726  -0.000009 1.262965 0.000000 
1 -0.049588 0.817091 0.205824 0.818594 1.631411  -0.000010 1.344978 0.000000 
1 -0.389716 0.097278 0.134115 0.401674 2.896980  -0.000153 3.970174 0.000000 
1 -0.077690 -0.593504 -0.011301 0.598567 4.582228  -0.000036 2.174933 0.000000 
1 0.316384 0.288668 0.006700 0.428285 0.739623  -0.000121 3.584408 0.000000 
1 0.110656 -0.917929 0.067856 0.924575 4.832360  -0.000006 1.121910 0.000000 
1 -0.208399 0.090756 0.053484 0.227303 2.730871  -0.000310 9.062343 0.000000 
1 0.298016 0.112496 -0.181384 0.318541 0.360945  -0.000289 5.486018 0.000000 
1 -0.240145 -0.018899 -0.049528 0.240887 3.220128  -0.000380 8.290477 0.000000 
1 0.005897 -0.197682 0.249462 0.197770 4.742213  0.000336 11.622216 0.000000 
1 -0.096053 -0.553357 0.169556 0.561632 4.540519  -0.000045 2.382714 0.000000 
1 -0.034959 -0.364720 0.068776 0.366391 4.616829  -0.000205 4.559589 0.000000 
1 -0.453534 0.300796 0.236388 0.544217 2.555976  -0.000050 2.475272 0.000000 
1 0.405767 -0.682743 0.013372 0.794220 5.248621  -0.000012 1.417199 0.000000 
1 -0.416736 0.195208 0.195765 0.460190 2.703526  -0.000092 3.183250 0.000000 
1 0.354081 0.220624 0.153862 0.417190 0.557224  -0.000129 3.674811 0.000000 
1 0.001028 0.162717 0.224664 0.162721 1.564477  0.001930 15.657820 0.000000 
1 -0.037177 0.173401 -0.153893 0.177341 1.781998  0.001280 13.799661 0.000000 
1 0.663042 0.610370 -0.075554 0.901208 0.744058  -0.000007 1.175024 0.000000 
2 0.117890 -0.000360 -0.021149 0.117891 6.280128  0.000000 0.000000 0.000000 
20
Atoms. Timestep: 11
1 0.488943 -0.702821 -0.052809 0.856167 5.320214  -0.000010 1.262965 0.000000 
1 -0.078690 0.814803 0.205824 0.818594 1.667074  -0.000011 1.344979 0.000000 
1 -0.397776 0.055788 0.134115 0.401670 3.002251  -0.000160 3.970195 0.000000 
1 -0.043353 -0.596994 -0.011301 0.598566 4.639897  -0.000039 2.174934 0.000000 
1 0.287560 0.317388 0.006700 0.428282 0.834665  -0.000128 3.584422 0.000000 
1 0.137910 -0.914231 0.067856 0.924574 4.862108  -0.000007 1.121910 0.000000 
1 -0.224006 0.038551 0.053484 0.227299 2.971165  -0.000151 9.062465 0.000000 
1 0.278555 0.154502 -0.181384 0.318534 0.506411  -0.000286 5.486084 0.000000 
1 -0.230238 -0.070808 -0.049528 0.240880 3.439957  -0.000272 8.290625 0.000000 
1 0.065583 -0.186597 0.249462 0.197787 5.050369  0.000650 11.621814 0.000000 
1 -0.060924 -0.558316 0.169556 0.561630 4.603698  -0.000049 2.382717 0.000000 
1 0.009283 -0.366268 0.068776 0.366386 4.737729  -0.000210 4.559624 0.000000 
1 -0.472285 0.270402 0.236388 0.544215 2.621609  -0.000053 2.475275 0.000000 
1 0.431130 -0.667017 0.013372 0.794220 5.286198  -0.000013 1.417200 0.000000 
1 -0.431707 0.159379 0.195765 0.460188 2.787932  -0.000098 3.183258 0.000000 
1 0.330935 0.254022 0.153862 0.417187 0.654663  -0.000135 3.674826 0.000000 
1 -0.064698 0.149352 0.224664 0.162763 1.979586  0.001599 15.655410 0.000000 
1 -0.096774 0.148660 -0.153893 0.177383 2.147858  0.001581 13.798039 0.000000 
1 0.643707 0.630728 -0.075554 0.901208 0.775214  -0.000008 1.175024 0.000000 
2 0.117890 -0.000360 -0.021149 0.117891 6.280128  0.000000 0.000000 0.000000 
20
Atoms. Timestep: 12
1 0.512134 -0.686105 -0.052809 0.856167 5.353606  -0.000010 1.262965 0.000000 
1 -0.107609 0.811490 0.205824 0.818594 1.702634  -0.000012 1.344979 0.000000 
1 -0.401428 0.013803 0.134115 0.401665 3.107222  -0.000165 3.970216 0.000000 
1 -0.008970 -0.598498 -0.011301 0.598565 4.697402  -0.000041 2.174936 0.000000 
1 0.256233 0.343172 0.006700 0.428278 0.929436  -0.000134 3.584436 0.000000 
1 0.164964 -0.909739 0.067856 0.924574 4.891771  -0.000008 1.121911 0.000000 
1 -0.226756 -0.015712 0.053484 0.227300 3.210774  0.000021 9.062498 0.000000 
1 0.253292 0.193138 -0.181384 0.318526 0.651462  -0.000277 5.486148 0.000000 
1 -0.209328 -0.119178 -0.049528 0.240876 3.659159  -0.000147 8.290720 0.000000 
1 0.118961 -0.158042 0.249462 0.197811 5.357628  0.000906 11.621183 0.000000 
1 -0.025654 -0.561043 0.169556 0.561629 4.666696  -0.000052 2.382719 0.000000 
1 0.053264 -0.362488 0.068776 0.366380 4.858284  -0.000213 4.559659 0.000000 
1 -0.488956 0.238936 0.236388 0.544214 2.687054  -0.000057 2.475278 0.000000 
1 0.455815 -0.650398 0.013372 0.794219 5.323668  -0.000014 1.417200 0.000000 
1 -0.443575 0.122523 0.195765 0.460185 2.872096  -0.000103 3.183267 0.000000 
1 0.304729 0.284925 0.153862 0.417183 0.751824  -0.000141 3.674842 0.000000 
1 -0.119316 0.110738 0.224664 0.162786 2.393465  0.000882 15.653779 0.000000 
1 -0.141243 0.107372 -0.153893 0.177421 2.491598  0.001438 13.000980 0.000000 
1 0.623804 0.650418 -0.075554 0.901208 0.806281  -0.000009 1.175024 0.000000 
2 0.117890 -0.000360 -0.021149 0.117891 6.280128  0.000000 0.000000 0.000000 
20
Atoms. Timestep: 13
1 0.534724 -0.668649 -0.052809 0.856167 5.386952  -0.000011 1.262965 0.000000 
1 -0.136353 0.807157 0.205824 0.818593 1.738146  -0.000013 1.344979 0.000000 
1 -0.400664 -0.028276 0.134115 0.401661 3.212049  -0.000168 3.970238 0.000000 
1 0.025394 -0.598025 -0.011301 0.598564 4.754827  -0.000044 2.174938 0.000000 
1 0.222655 0.365847 0.006700 0.428275 1.024076  -0.000138 3.584451 0.000000 
1 0.191835 -0.904454 0.067856 0.924574 4.921392  -0.000008 1.121911 0.000000 
1 -0.216577 -0.069007 0.053484 0.227305 3.450050  0.000198 9.062440 0.000000 
1 0.222755 0.227673 -0.181384 0.318520 0.796315  -0.000262 5.486209 0.000000 
1 -0.178452 -0.161791 -0.049528 0.240876 3.878061  -0.000012 8.290756 0.000000 
1 0.161162 -0.114749 0.249462 0.197840 5.664442  0.001093 11.620367 0.000000 
1 0.009670 -0.561544 0.169556 0.561628 4.729607  -0.000055 2.382722 0.000000 
1 0.096411 -0.353462 0.068776 0.366374 4.978674  -0.000212 4.559694 0.000000 
1 -0.503515 0.206492 0.236388 0.544212 2.752409  -0.000060 2.475282 0.000000 
1 0.479827 -0.632890 0.013372 0.794219 5.361087  -0.000015 1.417200 0.000000 
1 -0.452292 0.084852 0.195765 0.460182 2.956144  -0.000107 3.183277 0.000000 
1 0.275691 0.313102 0.153862 0.417179 0.848852  -0.000145 3.674859 0.000000 
1 -0.153742 0.053491 0.224664 0.162782 2.806763  -0.000165 15.653404 0.000000 
1 -0.169173 0.053588 -0.153893 0.177458 2.834827  0.001386 12.999570 0.000000 
1 0.603328 0.669455 -0.075554 0.901208 0.837306  -0.000009 1.175024 0.000000 
2 0.117890 -0.000360 -0.021149 0.117891 6.280128  0.000000 0.000000 0.000000 
20
Atoms. Timestep: 14
1 0.556717 -0.650451 -0.052809 0.856166 5.420295  -0.000012 1.262965 0.000000 
1 -0.164921 0.801808 0.205824 0.818593 1.773654  -0.000014 1.344979 0.000000 
1 -0.395503 -0.070039 0.134115 0.401656 3.316865  -0.000170 3.970260 0.000000 
1 0.059671 -0.595581 -0.011301 0.598563 4.812246  -0.000046 2.174941 0.000000 
1 0.187088 0.385245 0.006700 0.428271 1.118708  -0.000141 3.584467 0.000000 
1 0.218536 -0.898375 0.067856 0.924574 4.951011  -0.000009 1.121911 0.000000 
1 -0.194063 -0.118369 0.053484 0.227315 3.689298  0.000370 9.062288 0.000000 
1 0.187558 0.257435 -0.181384 0.318513 0.941154  -0.000241 5.486265 0.000000 
1 -0.139066 -0.196681 -0.049528 0.240879 4.096939  0.000128 8.290729 0.000000 
1 0.188319 -0.060736 0.249462 0.197871 5.971199  0.001179 11.619428 0.000000 
1 0.044951 -0.559824 0.169556 0.561626 4.792512  -0.000058 2.382726 0.000000 
1 0.138158 -0.339321 0.068776 0.366369 5.099053  -0.000209 4.559729 0.000000 
1 -0.515923 0.173170 0.236388 0.544210 2.817757  -0.000063 2.475285 0.000000 
1 0.503165 -0.614499 0.013372 0.794219 5.398501  -0.000016 1.417201 0.000000 
1 -0.457815 0.046586 0.195765 0.460179 3.040184  -0.000111 3.183287 0.000000 
1 0.244063 0.338332 0.153862 0.417175 0.945870  -0.000148 3.674876 0.000000 
1 -0.162250 -0.012755 0.224664 0.162751 3.220047  -0.001185 15.654472 0.000000 
1 -0.177370 -0.006458 -0.153893 0.177488 3.177988  0.001127 12.998340 0.000000 
1 0.582274 0.687846 -0.075554 0.901207 0.868327  -0.000010 1.175025 0.000000 
2 0.117890 -0.000360 -0.021149 0.117891 6.280128  0.000000 0.000000 0.000000 
20
Atoms. Timestep: 15
1 0.578115 -0.631508 -0.052809 0.856166 5.453676  -0.000012 1.262966 0.000000 
1 -0.193314 0.795439 0.205824 0.818593 1.809202  -0.000015 1.344980 0.000000 
1 -0.385986 -0.111079 0.134115 0.401652 3.421801  -0.000169 3.970283 0.000000 
1 0.093791 -0.591168 -0.011301 0.598561 4.869731  -0.000049 2.174943 0.000000 
1 0.149805 0.401212 0.006700 0.428267 1.213447  -0.000143 3.584483 0.000000 
1 0.245075 -0.891501 0.067856 0.924573 4.980664  -0.000009 1.121911 0.000000 
1 -0.160453 -0.161038 0.053484 0.227328 3.928812  0.000524 9.062050 0.000000 
1 0.148388 0.281830 -0.181384 0.318508 1.086160  -0.000214 5.486317 0.000000 
1 -0.092990 -0.222214 -0.049528 0.240886 4.316064  0.000266 8.290638 0.000000 
1 0.197897 -0.000971 0.249462 0.197900 6.278280  0.001100 11.618495 0.000000 
1 0.080094 -0.555884 0.169556 0.561625 4.855488  -0.000060 2.382729 0.000000 
1 0.177948 -0.320245 0.068776 0.366364 5.219569  -0.000202 4.559764 0.000000 
1 -0.526139 0.139070 0.236388 0.544209 2.883180  -0.000066 2.475289 0.000000 
1 0.525823 -0.595224 0.013372 0.794218 5.435959  -0.000017 1.417201 0.000000 
1 -0.460108 0.007948 0.195765 0.460176 3.124320  -0.000114 3.183297 0.000000 
1 0.210101 0.360402 0.153862 0.417171 1.042999  -0.000149 3.674893 0.000000 
1 -0.143386 -0.076898 0.224664 0.162705 3.633856  -0.001728 15.656542 0.000000 
1 -0.164848 -0.065828 -0.153893 0.177506 3.521516  0.000677 12.997460 0.000000 
1 0.560635 0.705594 -0.075554 0.901207 0.899383  -0.000010 1.175025 0.000000 
2 0.117890 -0.000360 -0.021149 0.117891 6.280128  0.000000 0.000000 0.000000 
20
Atoms. Timestep: 16
1 0.598907 -0.611825 -0.052809 0.856166 5.487118  -0.000013 1.262966 0.000000 
1 -0.221514 0.788051 0.205824 0.818592 1.844816  -0.000016 1.344980 0.000000 
1 -0.372195 -0.150969 0.134115 0.401647 3.526932  -0.000167 3.970305 0.000000 
1 0.127662 -0.584788 -0.011301 0.598560 4.927322  -0.000051 2.174945 0.000000 
1 0.111105 0.413600 0.006700 0.428263 1.308362  -0.000144 3.584499 0.000000 
1 0.271447 -0.883828 0.067856 0.924573 5.010371  -0.000010 1.121911 0.000000 
1 -0.117593 -0.194571 0.053484 0.227346 4.168761  0.000648 9.061736 0.000000 
1 0.106025 0.300338 -0.181384 0.318503 1.231436  -0.000182 5.486362 0.000000 
1 -0.042368 -0.237142 -0.049528 0.240897 4.535591  0.000396 8.290486 0.000000 
2 0.197897 -0.000971 0.249462 0.197900 6.278280  0.000000 0.000000 0.000000 
1 0.114984 -0.549726 0.169556 0.561623 4.918582  -0.000063 2.382732 0.000000 
1 0.215222 -0.296476 0.068776 0.366358 5.340310  -0.000192 4.559796 0.000000 
1 -0.534116 0.104311 0.236388 0.544207 2.948725  -0.000069 2.475293 0.000000 
1 0.547784 -0.575077 0.013372 0.794218 5.473485  -0.000018 1.417201 0.000000 
1 -0.459140 -0.030817 0.195765 0.460173 3.208612  -0.000116 3.183308 0.000000 
1 0.174090 0.379106 0.153862 0.417167 1.140308  -0.000149 3.674911 0.000000 
1 -0.100227 -0.128108 0.224664 0.162657 4.048495  -0.001824 15.658928 0.000000 
1 -0.132971 -0.117588 -0.153893 0.177506 3.865673  0.000004 12.997163 0.000000 
1 0.538413 0.722693 -0.075554 0.901207 0.930497  -0.000011 1.175025 0.000000 
2 0.117890 -0.000360 -0.021149 0.117891 6.280128  0.000000 0.000000 0.000000 
20
Atoms. Timestep: 17
1 0.619027 -0.591460 -0.052809 0.856165 5.520557  -0.000014 1.262966 0.000000 
1 -0.249430 0.779665 0.205824 0.818592 1.880427  -0.000016 1.344980 0.000000 
1 -0.354296 -0.189187 0.134115 0.401643 3.632053  -0.000163 3.970327 0.000000 
1 0.161107 -0.576469 -0.011301 0.598559 4.984907  -0.000053 2.174948 0.000000 
1 0.071410 0.422264 0.006700 0.428260 1.403268  -0.000143 3.584515 0.000000 
1 0.297577 -0.875376 0.067856 0.924573 5.040076  -0.000010 1.121911 0.000000 
1 -0.067997 -0.216959 0.053484 0.227365 4.408675  0.000732 9.061368 0.000000 
1 0.061433 0.312518 -0.181384 0.318499 1.376697  -0.000145 5.486399 0.000000 
1 0.010284 -0.240691 -0.049528 0.240910 4.755090  0.000508 8.290278 0.000000 
2 0.197897 -0.000971 0.249462 0.197900 6.278280  0.000000 0.000000 0.000000 
1 0.149412 -0.541382 0.169556 0.561621 4.981668  -0.000065 2.382736 0.000000 
1 0.249359 -0.268394 0.068776 0.366354 5.461038  -0.000179 4.559827 0.000000 
1 -0.539799 0.069107 0.236388 0.544205 3.014262  -0.000071 2.475297 0.000000 
1 0.568972 -0.554123 0.013372 0.794217 5.511008  -0.000019 1.417202 0.000000 
1 -0.454913 -0.069360 0.195765 0.460170 3.292895  -0.000118 3.183318 0.000000 
1 0.136437 0.394221 0.153862 0.417164 1.237608  -0.000148 3.674928 0.000000 
1 -0.040112 -0.157592 0.224664 0.162616 4.463148  -0.001520 15.661112 0.000000 
1 -0.085492 -0.155537 -0.153893 0.177484 4.209807  -0.000807 12.997667 0.000000 
1 0.515672 0.739091 -0.075554 0.901206 0.961608  -0.000012 1.175025 0.000000 
2 0.117890 -0.000360 -0.021149 0.117891 6.280128  0.000000 0.000000 0.000000 
20
Atoms. Timestep: 18
1 0.638454 -0.570434 -0.052809 0.856165 5.553995  -0.000015 1.262967 0.000000 
1 -0.277030 0.770290 0.205824 0.818591 1.916036  -0.000017 1.344981 0.000000 
1 -0.332486 -0.225314 0.134115 0.401639 3.737171  -0.000157 3.970348 0.000000 
1 0.194016 -0.566241 -0.011301 0.598557 5.042490  -0.000055 2.174950 0.000000 
1 0.031075 0.427127 0.006700 0.428256 1.498171  -0.000141 3.584530 0.000000 
1 0.323444 -0.866152 0.067856 0.924573 5.069779  -0.000010 1.121911 0.000000 
1 -0.014502 -0.226923 0.053484 0.227386 4.648570  0.000775 9.060964 0.000000 
1 0.015550 0.318116 -0.181384 0.318496 1.521953  -0.000104 5.486427 0.000000 
1 0.062446 -0.232693 -0.049528 0.240926 4.974573  0.000596 8.290025 0.000000 
2 0.197897 -0.000971 0.249462 0.197900 6.278280  0.000000 0.000000 0.000000 
1 0.183244 -0.530884 0.169556 0.561619 5.044753  -0.000067 2.382740 0.000000 
1 0.279864 -0.236407 0.068776 0.366349 5.581763  -0.000163 4.559856 0.000000 
1 -0.543164 0.033608 0.236388 0.544203 3.079797  -0.000073 2.475302 0.000000 
1 0.589357 -0.532389 0.013372 0.794217 5.548529  -0.000020 1.417202 0.000000 
1 -0.447456 -0.107408 0.195765 0.460167 3.377176  -0.000118 3.183329 0.000000 
1 0.097495 0.405607 0.153862 0.417160 1.334904  -0.000145 3.674945 0.000000 
1 0.026776 -0.160376 0.224664 0.162596 4.877823  -0.000774 15.662534 0.000000 