20
Atoms. Timestep: 0
1 0.184251 -0.836108 -0.052809 0.856169 4.929290 
1 0.257393 0.777077 0.205824 0.818596 1.250938 
1 -0.080694 0.393512 0.134115 0.401700 1.773054 
1 -0.406147 -0.439698 -0.011301 0.598573 3.966636 
1 0.412263 -0.116125 0.006700 0.428306 6.008622 
1 -0.181383 -0.906609 0.067856 0.924576 4.514928 
1 0.224232 0.038078 0.053484 0.227442 0.168210 
1 0.118116 -0.295894 -0.181384 0.318598 5.092193 
1 0.154270 0.185167 -0.049528 0.241011 0.876172 
1 0.023263 0.196556 0.249462 0.197928 1.452991 
1 -0.420459 -0.372362 0.169556 0.561639 3.866399 
1 -0.360219 -0.067170 0.068776 0.366428 3.325945 
1 -0.152844 0.522321 0.236388 0.544225 1.855474 
1 0.106952 -0.786988 0.013372 0.794222 4.847462 
1 -0.105943 0.447845 0.195765 0.460206 1.803088 
1 0.369585 -0.193579 0.153862 0.417212 5.800700 
1 -0.156871 -0.043460 0.224664 0.162780 3.411857 
1 -0.077060 -0.159844 -0.153893 0.177450 4.263168 
1 0.826000 0.360419 -0.075554 0.901209 0.411438 
1 0.099346 0.063711 -0.021149 0.118020 0.570238 
20
Atoms. Timestep: 1
1 0.191702 -0.834431 -0.052809 0.856169 4.938210 
1 0.249866 0.779530 0.205824 0.818596 1.260609 
1 -0.091563 0.391126 0.134115 0.401700 1.800757 
1 -0.399372 -0.445861 -0.011301 0.598573 3.981937 
1 0.415095 -0.105556 0.006700 0.428306 6.034171 
1 -0.174118 -0.908032 0.067856 0.924576 4.522935 
1 0.221248 0.052716 0.053484 0.227442 0.233904 
1 0.129663 -0.291019 -0.181384 0.318598 5.131536 
1 0.142776 0.194168 -0.049528 0.241011 0.936758 
1 0.007180 0.197797 0.249462 0.197928 1.534513 
1 -0.414051 -0.379474 0.169556 0.561639 3.883444 
1 -0.357909 -0.078555 0.068776 0.366428 3.357649 
1 -0.161967 0.519564 0.236388 0.544225 1.872985 
1 0.114766 -0.785886 0.013372 0.794222 4.857398 
1 -0.116185 0.445298 0.195765 0.460206 1.826022 
1 0.374538 -0.183813 0.153862 0.417212 5.826947 
1 -0.151345 -0.059930 0.224664 0.162779 3.518630 
1 -0.061409 -0.166485 -0.153893 0.177450 4.359017 
1 0.823008 0.367201 -0.075554 0.901209 0.419664 
1 0.086852 0.079908 -0.021149 0.118020 0.743780 
20
Atoms. Timestep: 2
1 0.199147 -0.832686 -0.052809 0.856169 4.947142 
1 0.242304 0.781913 0.205824 0.818596 1.270295 
1 -0.102378 0.388435 0.134115 0.401700 1.828500 
1 -0.392493 -0.451928 -0.011301 0.598573 3.997260 
1 0.417660 -0.094901 0.006700 0.428306 6.059757 
1 -0.166832 -0.909399 0.067856 0.924576 4.530954 
1 0.217304 0.067147 0.053484 0.227442 0.299695 
1 0.141026 -0.285685 -0.181384 0.318598 5.170937 
1 0.130739 0.202468 -0.049528 0.241011 0.997433 
1 -0.008975 0.197724 0.249462 0.197927 1.616155 
1 -0.407513 -0.386486 0.169556 0.561639 3.900514 
1 -0.355235 -0.089877 0.068776 0.366428 3.389400 
1 -0.171053 0.516644 0.236388 0.544225 1.890521 
1 0.122580 -0.784705 0.013372 0.794222 4.867349 
1 -0.126382 0.442512 0.195765 0.460206 1.848991 
1 0.379240 -0.173905 0.153862 0.417212 5.853233 
1 -0.144084 -0.075740 0.224664 0.162779 3.625561 
1 -0.045170 -0.171604 -0.153893 0.177449 4.455007 
1 0.819955 0.373968 -0.075554 0.901209 0.427902 
1 0.071725 0.093722 -0.021149 0.118018 0.917577 
20
Atoms. Timestep: 3
1 0.206577 -0.830874 -0.052809 0.856169 4.956075 
1 0.234719 0.784223 0.205824 0.818596 1.279981 
1 -0.113114 0.385446 0.134115 0.401700 1.856244 
1 -0.385522 -0.457889 -0.011301 0.598573 4.012583 
1 0.419951 -0.084185 0.006700 0.428306 6.085343 
1 -0.159534 -0.910708 0.067856 0.924575 4.538972 
1 0.212419 0.081288 0.053484 0.227441 0.365486 
1 0.152170 -0.279908 -0.181384 0.318598 5.210338 
1 0.118221 0.210023 -0.049528 0.241010 1.058107 
1 -0.025069 0.196332 0.249462 0.197927 1.697797 
1 -0.400857 -0.393385 0.169556 0.561639 3.917583 
1 -0.352202 -0.101109 0.068776 0.366428 3.421151 
1 -0.180086 0.513565 0.236388 0.544225 1.908058 
1 0.130383 -0.783447 0.013372 0.794222 4.877299 
1 -0.136511 0.439493 0.195765 0.460206 1.871959 
1 0.383680 -0.163878 0.153862 0.417212 5.879519 
1 -0.135177 -0.090685 0.224664 0.162778 3.732492 
1 -0.028514 -0.175143 -0.153893 0.177449 4.550998 
1 0.816846 0.380710 -0.075554 0.901209 0.436140 
1 0.054437 0.104712 -0.021149 0.118017 1.091374 
20
Atoms. Timestep: 4
1 0.213991 -0.828995 -0.052809 0.856169 4.965007 
1 0.227112 0.786460 0.205824 0.818596 1.289666 
1 -0.123762 0.382159 0.134115 0.401700 1.883988 
1 -0.378461 -0.463742 -0.011301 0.598573 4.027906 
1 0.421967 -0.073414 0.006700 0.428306 6.110930 
1 -0.152227 -0.911958 0.067856 0.924575 4.546991 
1 0.206615 0.095077 0.053484 0.227441 0.431276 
1 0.163078 -0.273697 -0.181384 0.318597 5.249739 
1 0.105268 0.216805 -0.049528 0.241010 1.118782 
1 -0.040997 0.193633 0.249462 0.197926 1.779440 
1 -0.394084 -0.400170 0.169556 0.561639 3.934653 
1 -0.348815 -0.112239 0.068776 0.366428 3.452902 
1 -0.189064 0.510328 0.236388 0.544224 1.925594 
1 0.138172 -0.782111 0.013372 0.794222 4.887250 
1 -0.146569 0.436241 0.195765 0.460205 1.894928 
1 0.387854 -0.153737 0.153862 0.417212 5.905806 
1 -0.124726 -0.104593 0.224664 0.162777 3.839423 
1 -0.011597 -0.177068 -0.153893 0.177448 4.646988 
1 0.813682 0.387427 -0.075554 0.901209 0.444378 
1 0.035509 0.112546 -0.021149 0.118015 1.265173 
20
Atoms. Timestep: 5
1 0.221387 -0.827051 -0.052809 0.856169 4.973940 
1 0.219484 0.788623 0.205824 0.818596 1.299352 
1 -0.134316 0.378579 0.134115 0.401700 1.911731 
1 -0.371311 -0.469487 -0.011301 0.598573 4.043230 
1 0.423707 -0.062594 0.006700 0.428305 6.136516 
1 -0.144909 -0.913149 0.067856 0.924575 4.555010 
1 0.199916 0.108455 0.053484 0.227440 0.497067 
1 0.173732 -0.267060 -0.181384 0.318597 5.289140 
1 0.091927 0.222789 -0.049528 0.241009 1.179457 
1 -0.056651 0.189644 0.249462 0.197925 1.861082 
1 -0.387196 -0.406838 0.169556 0.561639 3.951723 
1 -0.345076 -0.123256 0.068776 0.366428 3.484653 
1 -0.197984 0.506934 0.236388 0.544224 1.943131 
1 0.145947 -0.780697 0.013372 0.794222 4.897201 
1 -0.156549 0.432760 0.195765 0.460205 1.917896 
1 0.391761 -0.143490 0.153862 0.417212 5.932092 
1 -0.112850 -0.117307 0.224664 0.162776 3.946355 
1 0.005427 -0.177364 -0.153893 0.177447 4.742979 
1 0.810463 0.394116 -0.075554 0.901209 0.452616 
1 0.015512 0.116990 -0.021149 0.118013 1.438973 
20
Atoms. Timestep: 6
1 0.228766 -0.825040 -0.052809 0.856169 4.982872 
1 0.211836 0.790711 0.205824 0.818596 1.309038 
1 -0.144766 0.374707 0.134115 0.401700 1.939475 
1 -0.364073 -0.475121 -0.011301 0.598573 4.058553 
1 0.425169 -0.051734 0.006700 0.428305 6.162102 
1 -0.137582 -0.914282 0.067856 0.924575 4.563028 
1 0.192353 0.121363 0.053484 0.227439 0.562858 
1 0.184117 -0.260009 -0.181384 0.318597 5.328541 
1 0.078249 0.227952 -0.049528 0.241009 1.240132 
1 -0.071928 0.184392 0.249462 0.197924 1.942725 
1 -0.380195 -0.413388 0.169556 0.561639 3.968793 
1 -0.340989 -0.134148 0.068776 0.366427 3.516404 
1 -0.206843 0.503385 0.236388 0.544224 1.960667 
1 0.153708 -0.779206 0.013372 0.794222 4.907151 
1 -0.166447 0.429050 0.195765 0.460205 1.940865 
1 0.395397 -0.133143 0.153862 0.417212 5.958378 
1 -0.099684 -0.128680 0.224664 0.162774 4.053286 
1 0.022401 -0.176026 -0.153893 0.177446 4.838970 
1 0.807189 0.400780 -0.075554 0.901209 0.460854 
1 -0.004952 0.117907 -0.021149 0.118011 1.612775 
20
Atoms. Timestep: 7
1 0.236126 -0.822964 -0.052809 0.856169 4.991805 
1 0.204167 0.792726 0.205824 0.818596 1.318723 
1 -0.155104 0.370547 0.134115 0.401699 1.967219 
1 -0.356750 -0.480643 -0.011301 0.598572 4.073876 
1 0.426353 -0.040840 0.006700 0.428305 6.187689 
1 -0.130247 -0.915355 0.067856 0.924575 4.571047 
1 0.183958 0.133746 0.053484 0.227439 0.628649 
1 0.194216 -0.252555 -0.181384 0.318596 5.367942 
1 0.064282 0.232277 -0.049528 0.241008 1.300807 
1 -0.086726 0.177911 0.249462 0.197923 2.024368 
1 -0.373084 -0.419817 0.169556 0.561639 3.985862 
1 -0.336558 -0.144905 0.068776 0.366427 3.548155 
1 -0.215638 0.499680 0.236388 0.544224 1.978204 
1 0.161454 -0.777638 0.013372 0.794222 4.917102 
1 -0.176256 0.425114 0.195765 0.460205 1.963833 
1 0.398759 -0.122705 0.153862 0.417211 5.984664 
1 -0.085380 -0.138583 0.224664 0.162773 4.160219 
1 0.039169 -0.173067 -0.153893 0.177444 4.934962 
1 0.803860 0.407415 -0.075554 0.901209 0.469092 
1 -0.025267 0.115272 -0.021149 0.118009 1.786578 
20
Atoms. Timestep: 8
1 0.243468 -0.820822 -0.052809 0.856169 5.000737 
1 0.196480 0.794666 0.205824 0.818596 1.328409 
1 -0.165324 0.366101 0.134115 0.401699 1.994962 
1 -0.349344 -0.486053 -0.011301 0.598572 4.089199 
1 0.427258 -0.029919 0.006700 0.428305 6.213275 
1 -0.122903 -0.916370 0.067856 0.924575 4.579066 
1 0.174766 0.145550 0.053484 0.227438 0.694440 
1 0.204013 -0.244708 -0.181384 0.318596 5.407343 
1 0.050079 0.235747 -0.049528 0.241007 1.361482 
1 -0.100945 0.170244 0.249462 0.197922 2.106011 
1 -0.365864 -0.426124 0.169556 0.561638 4.002932 
1 -0.331788 -0.155516 0.068776 0.366427 3.579906 
1 -0.224367 0.495822 0.236388 0.544224 1.995741 
1 0.169184 -0.775993 0.013372 0.794222 4.927052 
1 -0.185973 0.420954 0.195765 0.460205 1.986802 
1 0.401846 -0.112182 0.153862 0.417211 6.010950 
1 -0.070101 -0.146903 0.224664 0.162771 4.267151 
1 0.055576 -0.168515 -0.153893 0.177443 5.030953 
1 0.800476 0.414024 -0.075554 0.901209 0.477330 
1 -0.044820 0.109164 -0.021149 0.118007 1.960383 
20
Atoms. Timestep: 9
1 0.250790 -0.818614 -0.052809 0.856169 5.009670 
1 0.188774 0.796532 0.205824 0.818596 1.338095 
1 -0.175415 0.361374 0.134115 0.401699 2.022706 
1 -0.341855 -0.491349 -0.011301 0.598572 4.104523 
1 0.427884 -0.018978 0.006700 0.428304 6.238861 
1 -0.115551 -0.917326 0.067856 0.924575 4.587084 
1 0.164818 0.156724 0.053484 0.227437 0.760231 
1 0.213493 -0.236481 -0.181384 0.318595 5.446744 
1 0.035691 0.238349 -0.049528 0.241006 1.422157 
1 -0.114492 0.161444 0.249462 0.197921 2.187654 
1 -0.358537 -0.432307 0.169556 0.561638 4.020002 
1 -0.326683 -0.165971 0.068776 0.366426 3.611657 
1 -0.233027 0.491811 0.236388 0.544224 2.013277 
1 0.176897 -0.774271 0.013372 0.794221 4.937003 
1 -0.195592 0.416572 0.195765 0.460204 2.009770 
1 0.404656 -0.101581 0.153862 0.417211 6.037236 
1 -0.054021 -0.153544 0.224664 0.162770 4.374085 
1 0.071471 -0.162411 -0.153893 0.177441 5.126946 
1 0.797038 0.420604 -0.075554 0.901209 0.485568 
1 -0.063021 0.099767 -0.021149 0.118005 2.134189 
20
Atoms. Timestep: 10
1 0.258092 -0.816341 -0.052809 0.856168 5.018603 
1 0.181050 0.798323 0.205824 0.818595 1.347781 
1 -0.185372 0.356369 0.134115 0.401698 2.050450 
1 -0.334286 -0.496529 -0.011301 0.598572 4.119846 
1 0.428229 -0.008025 0.006700 0.428304 6.264448 
1 -0.108191 -0.918223 0.067856 0.924575 4.595103 
1 0.154157 0.167220 0.053484 0.227436 0.826023 
1 0.222643 -0.227888 -0.181384 0.318595 5.486146 
1 0.021172 0.240073 -0.049528 0.241005 1.482832 
1 -0.127276 0.151568 0.249462 0.197919 2.269298 
1 -0.351105 -0.438363 0.169556 0.561638 4.037071 
1 -0.321249 -0.176257 0.068776 0.366426 3.643408 
1 -0.241616 0.487649 0.236388 0.544223 2.030814 
1 0.184593 -0.772472 0.013372 0.794221 4.946954 
1 -0.205107 0.411969 0.195765 0.460204 2.032739 
1 0.407185 -0.090910 0.153862 0.417210 6.063522 
1 -0.037325 -0.158431 0.224664 0.162768 4.481019 
1 0.086707 -0.154812 -0.153893 0.177440 5.222938 
1 0.793546 0.427155 -0.075554 0.901209 0.493806 
1 -0.079324 0.087364 -0.021149 0.118003 2.307997 
20
Atoms. Timestep: 11
1 0.265374 -0.814003 -0.052809 0.856168 5.027535 
1 0.173309 0.800039 0.205824 0.818595 1.357466 
1 -0.195187 0.351089 0.134115 0.401698 2.078193 
1 -0.326638 -0.501593 -0.011301 0.598572 4.135169 
1 0.428294 0.002933 0.006700 0.428304 0.006849 
1 -0.100825 -0.919061 0.067856 0.924575 4.603122 
1 0.142829 0.176992 0.053484 0.227435 0.891814 
1 0.231446 -0.218940 -0.181384 0.318594 5.525547 
1 0.006576 0.240914 -0.049528 0.241004 1.543508 
1 -0.139212 0.140682 0.249462 0.197918 2.350941 
1 -0.343572 -0.444292 0.169556 0.561638 4.054141 
1 -0.315492 -0.186367 0.068776 0.366425 3.675159 
1 -0.250130 0.483337 0.236388 0.544223 2.048350 
1 0.192270 -0.770597 0.013372 0.794221 4.956904 
1 -0.214515 0.407150 0.195765 0.460204 2.055707 
1 0.409434 -0.080177 0.153862 0.417210 6.089808 
1 -0.020202 -0.161508 0.224664 0.162766 4.587953 
1 0.101145 -0.145787 -0.153893 0.177438 5.318931 
1 0.790000 0.433678 -0.075554 0.901209 0.502044 
1 -0.093235 0.072328 -0.021149 0.118001 2.481806 
20
Atoms. Timestep: 12
1 0.272634 -0.811600 -0.052809 0.856168 5.036468 
1 0.165552 0.801680 0.205824 0.818595 1.367152 
1 -0.204850 0.345539 0.134115 0.401697 2.105937 
1 -0.318914 -0.506539 -0.011301 0.598572 4.150492 
1 0.428078 0.013890 0.006700 0.428303 0.032435 
1 -0.093452 -0.919840 0.067856 0.924575 4.611140 
1 0.130883 0.185999 0.053484 0.227433 0.957606 
1 0.239890 -0.209653 -0.181384 0.318593 5.564948 
1 -0.008045 0.240869 -0.049528 0.241003 1.604183 
1 -0.150220 0.128859 0.249462 0.197916 2.432586 
1 -0.335938 -0.450092 0.169556 0.561638 4.071211 
1 -0.309416 -0.196288 0.068776 0.366425 3.706910 
1 -0.258567 0.478876 0.236388 0.544223 2.065887 
1 0.199928 -0.768646 0.013372 0.794221 4.966855 
1 -0.223809 0.402115 0.195765 0.460203 2.078676 
1 0.411399 -0.069388 0.153862 0.417210 6.116095 
1 -0.002848 -0.162739 0.224664 0.162764 4.694888 
1 0.114651 -0.135421 -0.153893 0.177436 5.414925 
1 0.786401 0.440171 -0.075554 0.901209 0.510282 
1 -0.104337 0.055114 -0.021149 0.117999 2.655617 
20
Atoms. Timestep: 13
1 0.279873 -0.809132 -0.052809 0.856168 5.045400 
1 0.157780 0.803246 0.205824 0.818595 1.376838 
1 -0.214357 0.339723 0.134115 0.401697 2.133681 
1 -0.311115 -0.511366 -0.011301 0.598571 4.165816 
1 0.427582 0.024837 0.006700 0.428303 0.058021 
1 -0.086073 -0.920560 0.067856 0.924575 4.619159 
1 0.118371 0.194200 0.053484 0.227432 1.023398 
1 0.247962 -0.200040 -0.181384 0.318593 5.604349 
1 -0.022636 0.239936 -0.049528 0.241002 1.664859 
1 -0.160228 0.116178 0.249462 0.197915 2.514230 
1 -0.328206 -0.455760 0.169556 0.561637 4.088281 
1 -0.303028 -0.206011 0.068776 0.366424 3.738662 
1 -0.266924 0.474268 0.236388 0.544223 2.083424 
1 0.207567 -0.766618 0.013372 0.794221 4.976806 
1 -0.232985 0.396869 0.195765 0.460203 2.101644 
1 0.413080 -0.058551 0.153862 0.417209 6.142381 
1 0.014537 -0.162112 0.224664 0.162762 4.801824 
1 0.127102 -0.123807 -0.153893 0.177435 5.510919 
1 0.782748 0.446634 -0.075554 0.901209 0.518520 
1 -0.112296 0.036240 -0.021149 0.117998 2.829429 
20
Atoms. Timestep: 14
1 0.287089 -0.806600 -0.052809 0.856168 5.054333 
1 0.149993 0.804736 0.205824 0.818595 1.386524 
1 -0.223698 0.333646 0.134115 0.401697 2.161425 
1 -0.303243 -0.516073 -0.011301 0.598571 4.181139 
1 0.426806 0.035768 0.006700 0.428302 0.083608 
1 -0.078689 -0.921220 0.067856 0.924575 4.627177 
1 0.105347 0.201561 0.053484 0.227431 1.089190 
1 0.255649 -0.190117 -0.181384 0.318592 5.643751 
1 -0.037143 0.238121 -0.049528 0.241001 1.725535 
1 -0.169167 0.102723 0.249462 0.197913 2.595875 
1 -0.320379 -0.461295 0.169556 0.561637 4.105350 
1 -0.296335 -0.215527 0.068776 0.366424 3.770413 
1 -0.275200 0.469514 0.236388 0.544223 2.100960 
1 0.215185 -0.764515 0.013372 0.794221 4.986756 
1 -0.242038 0.391413 0.195765 0.460203 2.124613 
1 0.414476 -0.047674 0.153862 0.417209 6.168667 
1 0.031756 -0.159632 0.224664 0.162761 4.908760 
1 0.138382 -0.111053 -0.153893 0.177433 5.606913 
1 0.779042 0.453067 -0.075554 0.901209 0.526758 
1 -0.116870 0.016273 -0.021149 0.117998 3.003241 
20
Atoms. Timestep: 15
1 0.294283 -0.804003 -0.052809 0.856168 5.063265 
1 0.142191 0.806151 0.205824 0.818595 1.396209 
1 -0.232867 0.327311 0.134115 0.401696 2.189168 
1 -0.295300 -0.520658 -0.011301 0.598571 4.196462 
1 0.425751 0.046675 0.006700 0.428302 0.109194 
1 -0.071300 -0.921821 0.067856 0.924575 4.635196 
1 0.091867 0.208050 0.053484 0.227429 1.154982 
1 0.262939 -0.179899 -0.181384 0.318591 5.683152 
1 -0.051514 0.235429 -0.049528 0.240999 1.786211 
1 -0.176980 0.088584 0.249462 0.197911 2.677520 
1 -0.312458 -0.466697 0.169556 0.561637 4.122420 
1 -0.289343 -0.224826 0.068776 0.366423 3.802164 
1 -0.283390 0.464616 0.236388 0.544222 2.118497 
1 0.222781 -0.762335 0.013372 0.794221 4.996707 
1 -0.250963 0.385751 0.195765 0.460202 2.147581 
1 0.415585 -0.036763 0.153862 0.417208 6.194953 
1 0.048613 -0.155329 0.224664 0.162759 5.015697 
1 0.148387 -0.097278 -0.153893 0.177431 5.702908 
1 0.775283 0.459470 -0.075554 0.901208 0.534996 
1 -0.117923 -0.004183 -0.021149 0.117997 3.177053 
20
Atoms. Timestep: 16
1 0.301453 -0.801342 -0.052809 0.856168 5.072198 
1 0.134376 0.807490 0.205824 0.818595 1.405895 
1 -0.241857 0.320725 0.134115 0.401695 2.216912 
1 -0.287287 -0.525122 -0.011301 0.598571 4.211786 
1 0.424417 0.057552 0.006700 0.428302 0.134781 
1 -0.063906 -0.922363 0.067856 0.924575 4.643215 
1 0.077989 0.213638 0.053484 0.227428 1.220775 
1 0.269820 -0.169401 -0.181384 0.318590 5.722553 
1 -0.065695 0.231871 -0.049528 0.240998 1.846887 
1 -0.183613 0.073855 0.249462 0.197910 2.759166 
1 -0.304447 -0.471962 0.169556 0.561636 4.139490 
1 -0.282059 -0.233897 0.068776 0.366422 3.833915 
1 -0.291494 0.459575 0.236388 0.544222 2.136033 
1 0.230356 -0.760081 0.013372 0.794221 5.006658 
1 -0.259756 0.379885 0.195765 0.460202 2.170550 
1 0.416408 -0.025828 0.153862 0.417208 6.221239 
1 0.064913 -0.149252 0.224664 0.162757 5.122634 
1 0.157027 -0.082606 -0.153893 0.177429 5.798904 
1 0.771472 0.465841 -0.075554 0.901208 0.543234 
1 -0.115423 -0.024514 -0.021149 0.117998 3.350866 
20
Atoms. Timestep: 17
1 0.308599 -0.798618 -0.052809 0.856168 5.081131 
1 0.126549 0.808754 0.205824 0.818595 1.415581 
1 -0.250660 0.313892 0.134115 0.401695 2.244656 
1 -0.279207 -0.529462 -0.011301 0.598570 4.227109 
1 0.422805 0.068391 0.006700 0.428301 0.160367 
1 -0.056508 -0.922846 0.067856 0.924574 4.651233 
1 0.063774 0.218302 0.053484 0.227426 1.286568 
1 0.276283 -0.158641 -0.181384 0.318589 5.761955 
1 -0.079634 0.227459 -0.049528 0.240997 1.907564 
1 -0.189023 0.058633 0.249462 0.197908 2.840812 
1 -0.296346 -0.477089 0.169556 0.561636 4.156559 
1 -0.274491 -0.242733 0.068776 0.366422 3.865666 
1 -0.299508 0.454392 0.236388 0.544222 2.153570 
1 0.237907 -0.757751 0.013372 0.794220 5.016608 
1 -0.268412 0.373819 0.195765 0.460201 2.193519 
1 0.416942 -0.014874 0.153862 0.417207 6.247526 
1 0.080472 -0.141469 0.224664 0.162755 5.229573 
1 0.164220 -0.067174 -0.153893 0.177427 5.894899 
1 0.767608 0.472180 -0.075554 0.901208 0.551472 
1 -0.109445 -0.044106 -0.021149 0.117998 3.524678 
20
Atoms. Timestep: 18
1 0.315720 -0.795829 -0.052809 0.856168 5.090063 
1 0.118710 0.809941 0.205824 0.818594 1.425266 
1 -0.259271 0.306817 0.134115 0.401694 2.272400 
1 -0.271061 -0.533678 -0.011301 0.598570 4.242432 
1 0.420917 0.079186 0.006700 0.428300 0.185953 
1 -0.049106 -0.923269 0.067856 0.924574 4.659252 
1 0.049284 0.222021 0.053484 0.227425 1.352361 
1 0.282317 -0.147634 -0.181384 0.318588 5.801357 
1 -0.093280 0.222210 -0.049528 0.240995 1.968240 
1 -0.193174 0.043022 0.249462 0.197906 2.922458 
1 -0.288160 -0.482078 0.169556 0.561636 4.173629 
1 -0.266647 -0.251324 0.068776 0.366421 3.897418 
1 -0.307430 0.449070 0.236388 0.544221 2.171107 
1 0.245436 -0.755346 0.013372 0.794220 5.026559 
1 -0.276926 0.367555 0.195765 0.460201 2.216487 
1 0.417188 -0.003911 0.153862 0.417207 6.273812 
1 0.095111 -0.132071 0.224664 0.162753 5.336511 
1 0.169900 -0.051124 -0.153893 0.177426 5.990896 
1 0.763692 0.478487 -0.075554 0.901208 0.559709 
1 -0.100169 -0.062369 -0.021149 0.117999 3.698489 
20
Atoms. Timestep: 19
1 0.322816 -0.792977 -0.052809 0.856167 5.098996 
1 0.110860 0.811053 0.205824 0.818594 1.434952 
1 -0.267682 0.299507 0.134115 0.401694 2.300144 
1 -0.262852 -0.537768 -0.011301 0.598570 4.257755 
1 0.418753 0.089928 0.006700 0.428300 0.211540 
1 -0.041701 -0.923633 0.067856 0.924574 4.667271 
1 0.034580 0.224779 0.053484 0.227423 1.418154 
1 0.287912 -0.136398 -0.181384 0.318587 5.840758 
1 -0.106583 0.216144 -0.049528 0.240994 2.028917 
1 -0.196037 0.027124 0.249462 0.197905 3.004105 
1 -0.279889 -0.486926 0.169556 0.561636 4.190699 
1 -0.258533 -0.259662 0.068776 0.366420 3.929169 
1 -0.315257 0.443609 0.236388 0.544221 2.188643 
1 0.252939 -0.752866 0.013372 0.794220 5.036510 
1 -0.285294 0.361098 0.195765 0.460200 2.239456 
1 0.417146 0.007056 0.153862 0.417206 0.016913 
1 0.108663 -0.121163 0.224664 0.162752 5.443450 
1 0.174017 -0.034604 -0.153893 0.177424 6.086893 
1 0.759724 0.484762 -0.075554 0.901208 0.567947 
1 -0.087875 -0.078753 -0.021149 0.118000 3.872300 
20
Atoms. Timestep: 20
1 0.329886 -0.790062 -0.052809 0.856167 5.107928 
1 0.102999 0.812088 0.205824 0.818594 1.444638 
1 -0.275887 0.291965 0.134115 0.401693 2.327888 
1 -0.254581 -0.541732 -0.011301 0.598569 4.273079 
1 0.416314 0.100612 0.006700 0.428299 0.237126 
1 -0.034294 -0.923938 0.067856 0.924574 4.675289 
1 0.019727 0.226565 0.053484 0.227422 1.483947 
1 0.293061 -0.124951 -0.181384 0.318586 5.880160 
1 -0.119493 0.209281 -0.049528 0.240992 2.089594 
1 -0.197594 0.011045 0.249462 0.197903 3.085751 
1 -0.271537 -0.491632 0.169556 0.561635 4.207769 
1 -0.250159 -0.267738 0.068776 0.366420 3.960920 
1 -0.322987 0.438013 0.236388 0.544221 2.206180 
1 0.260418 -0.750312 0.013372 0.794220 5.046460 
1 -0.293512 0.354450 0.195765 0.460200 2.262424 
1 0.416816 0.018017 0.153862 0.417206 0.043199 
1 0.120974 -0.108872 0.224664 0.162750 5.550390 
1 0.176531 -0.017765 -0.153893 0.177422 6.182890 
1 0.755705 0.491004 -0.075554 0.901208 0.576185 
1 -0.072933 -0.092764 -0.021149 0.118001 4.046110 
20
Atoms. Timestep: 21
1 0.336930 -0.787083 -0.052809 0.856167 5.116861 
1 0.095128 0.813048 0.205824 0.818594 1.454324 
1 -0.283879 0.284199 0.134115 0.401692 2.355631 
1 -0.246250 -0.545569 -0.011301 0.598569 4.288402 
1 0.413603 0.111230 0.006700 0.428299 0.262713 
1 -0.026884 -0.924183 0.067856 0.924574 4.683308 
1 0.004788 0.227370 0.053484 0.227420 1.549741 
1 0.297754 -0.113309 -0.181384 0.318585 5.919562 
1 -0.131963 0.201649 -0.049528 0.240991 2.150271 
1 -0.197835 -0.005107 0.249462 0.197901 3.167399 
1 -0.263105 -0.496195 0.169556 0.561635 4.224838 
1 -0.241533 -0.275544 0.068776 0.366419 3.992672 
1 -0.330618 0.432281 0.236388 0.544220 2.223717 
1 0.267871 -0.747683 0.013372 0.794220 5.056411 
1 -0.301575 0.347615 0.195765 0.460199 2.285393 
1 0.416198 0.028966 0.153862 0.417205 0.069485 
1 0.131902 -0.095337 0.224664 0.162749 5.657330 
1 0.177419 -0.000762 -0.153893 0.177421 6.278888 
1 0.751635 0.497213 -0.075554 0.901208 0.584423 
1 -0.055792 -0.103980 -0.021149 0.118003 4.219919 
20
Atoms. Timestep: 22
1 0.343947 -0.784042 -0.052809 0.856167 5.125793 
1 0.087249 0.813931 0.205824 0.818594 1.464009 
1 -0.291653 0.276214 0.134115 0.401692 2.383375 
1 -0.237861 -0.549278 -0.011301 0.598569 4.303725 
1 0.410622 0.121775 0.006700 0.428298 0.288299 
1 -0.019472 -0.924369 0.067856 0.924574 4.691327 
1 -0.010171 0.227191 0.053484 0.227418 1.615535 
1 0.301986 -0.101492 -0.181384 0.318584 5.958963 
1 -0.143947 0.193274 -0.049528 0.240989 2.210948 
1 -0.196758 -0.021224 0.249462 0.197900 3.249046 
1 -0.254597 -0.500613 0.169556 0.561634 4.241908 
1 -0.232663 -0.283072 0.068776 0.366418 4.024423 
1 -0.338148 0.426417 0.236388 0.544220 2.241253 
1 0.275298 -0.744980 0.013372 0.794220 5.066361 
1 -0.309478 0.340597 0.195765 0.460199 2.308362 
1 0.415292 0.039895 0.153862 0.417204 0.095772 
1 0.141323 -0.080713 0.224664 0.162748 5.764271 
1 0.176674 0.016247 -0.153893 0.177419 0.091701 
1 0.747513 0.503388 -0.075554 0.901208 0.592661 
1 -0.036970 -0.112064 -0.021149 0.118004 4.393728 
20
Atoms. Timestep: 23
1 0.350937 -0.780938 -0.052809 0.856167 5.134726 
1 0.079362 0.814737 0.205824 0.818594 1.473695 
1 -0.299203 0.268017 0.134115 0.401691 2.411119 
1 -0.229417 -0.552858 -0.011301 0.598568 4.319049 
1 0.407371 0.132240 0.006700 0.428297 0.313886 
1 -0.012060 -0.924495 0.067856 0.924574 4.699345 
1 -0.025086 0.226029 0.053484 0.227417 1.681329 
1 0.305748 -0.089517 -0.181384 0.318583 5.998365 
1 -0.155401 0.184189 -0.049528 0.240988 2.271626 
1 -0.194370 -0.037200 0.249462 0.197898 3.330694 
1 -0.246015 -0.504885 0.169556 0.561634 4.258978 
1 -0.223559 -0.290315 0.068776 0.366417 4.056175 
1 -0.345573 0.420421 0.236388 0.544219 2.258790 
1 0.282697 -0.742204 0.013372 0.794219 5.076312 
1 -0.317218 0.333399 0.195765 0.460198 2.331330 
1 0.414100 0.050797 0.153862 0.417203 0.122058 
1 0.149130 -0.065167 0.224664 0.162747 5.871212 
1 0.174302 0.033106 -0.153893 0.177418 0.187699 
1 0.743341 0.509529 -0.075554 0.901207 0.600899 
1 -0.017034 -0.116770 -0.021149 0.118006 4.567535 
20
Atoms. Timestep: 24
1 0.357899 -0.777772 -0.052809 0.856167 5.143659 
1 0.071467 0.815468 0.205824 0.818593 1.483381 
1 -0.306522 0.259613 0.134115 0.401690 2.438863 
1 -0.220919 -0.556308 -0.011301 0.598568 4.334372 
1 0.403854 0.142618 0.006700 0.428297 0.339472 
1 -0.004646 -0.924562 0.067856 0.924573 4.707364 
1 -0.039892 0.223889 0.053484 0.227415 1.747123 
1 0.309036 -0.077403 -0.181384 0.318582 6.037767 
1 -0.166284 0.174425 -0.049528 0.240986 2.332304 
1 -0.190687 -0.052928 0.249462 0.197896 3.412343 
1 -0.237361 -0.509011 0.169556 0.561634 4.276048 
1 -0.214229 -0.297265 0.068776 0.366416 4.087926 
1 -0.352892 0.414296 0.236388 0.544219 2.276326 
1 0.290068 -0.739354 0.013372 0.794219 5.086263 
1 -0.324791 0.326025 0.195765 0.460198 2.354299 
1 0.412621 0.061663 0.153862 0.417203 0.148344 
1 0.155233 -0.048877 0.224664 0.162746 5.978153 
1 0.170325 0.049660 -0.153893 0.177417 0.283698 
1 0.739118 0.515635 -0.075554 0.901207 0.609137 
1 0.003416 -0.117958 -0.021149 0.118007 4.741340 
20
Atoms. Timestep: 25
1 0.364832 -0.774544 -0.052809 0.856166 5.152591 
1 0.063565 0.816121 0.205824 0.818593 1.493067 
1 -0.313605 0.251010 0.134115 0.401689 2.466607 
1 -0.212368 -0.559628 -0.011301 0.598568 4.349695 
1 0.400072 0.152904 0.006700 0.428296 0.365059 
1 0.002768 -0.924569 0.067856 0.924573 4.715383 
1 -0.054525 0.220780 0.053484 0.227414 1.812918 
1 0.311844 -0.065170 -0.181384 0.318581 6.077169 
1 -0.176554 0.164019 -0.049528 0.240984 2.392982 
1 -0.185734 -0.068303 0.249462 0.197895 3.493991 
1 -0.228638 -0.512988 0.169556 0.561633 4.293118 
1 -0.204684 -0.303915 0.068776 0.366415 4.119678 
1 -0.360102 0.408044 0.236388 0.544218 2.293863 
1 0.297411 -0.736431 0.013372 0.794219 5.096213 
1 -0.332193 0.318479 0.195765 0.460197 2.377268 
1 0.410857 0.072487 0.153862 0.417202 0.174631 
1 0.159563 -0.032028 0.224664 0.162745 6.085094 
1 0.164780 0.065757 -0.153893 0.177416 0.379698 
1 0.734845 0.521706 -0.075554 0.901207 0.617375 
1 0.023763 -0.115592 -0.021149 0.118009 4.915145 
20
Atoms. Timestep: 26
1 0.371736 -0.771254 -0.052809 0.856166 5.161524 
1 0.055657 0.816699 0.205824 0.818593 1.502752 
1 -0.320447 0.242213 0.134115 0.401688 2.494351 
1 -0.203768 -0.562816 -0.011301 0.598567 4.365018 
1 0.396029 0.163089 0.006700 0.428295 0.390646 
1 0.010181 -0.924517 0.067856 0.924573 4.723401 
1 -0.068923 0.216716 0.053484 0.227412 1.878712 
1 0.314168 -0.052835 -0.181384 0.318580 6.116571 
1 -0.186174 0.153010 -0.049528 0.240983 2.453660 
1 -0.179543 -0.083224 0.249462 0.197894 3.575640 
1 -0.219848 -0.516815 0.169556 0.561633 4.310187 
1 -0.194932 -0.310259 0.068776 0.366414 4.151429 
1 -0.367202 0.401666 0.236388 0.544218 2.311400 
1 0.304724 -0.733435 0.013372 0.794219 5.106164 
1 -0.339419 0.310765 0.195765 0.460196 2.400236 
1 0.408809 0.083260 0.153862 0.417201 0.200917 
1 0.162069 -0.014814 0.224664 0.162745 6.192036 
1 0.157717 0.081249 -0.153893 0.177415 0.475697 
1 0.730522 0.527742 -0.075554 0.901207 0.625613 
1 0.043395 -0.109742 -0.021149 0.118010 5.088949 
20
Atoms. Timestep: 27
1 0.378610 -0.767903 -0.052809 0.856166 5.170456 
1 0.047744 0.817199 0.205824 0.818593 1.512438 
1 -0.327042 0.233230 0.134115 0.401688 2.522095 
1 -0.195120 -0.565871 -0.011301 0.598567 4.380342 
1 0.391726 0.173167 0.006700 0.428294 0.416232 
1 0.017594 -0.924406 0.067856 0.924573 4.731420 
1 -0.083021 0.211714 0.053484 0.227411 1.944507 
1 0.316004 -0.040418 -0.181384 0.318579 6.155973 
1 -0.195109 0.141438 -0.049528 0.240981 2.514338 
1 -0.172156 -0.097589 0.249462 0.197892 3.657290 
1 -0.210995 -0.520492 0.169556 0.561632 4.327257 
1 -0.184984 -0.316291 0.068776 0.366413 4.183181 
1 -0.374189 0.395165 0.236388 0.544217 2.328936 
1 0.312007 -0.730366 0.013372 0.794218 5.116115 
1 -0.346467 0.302888 0.195765 0.460196 2.423205 
1 0.406478 0.093976 0.153862 0.417200 0.227204 
1 0.162725 0.002570 0.224664 0.162745 0.015792 
1 0.149202 0.095992 -0.153893 0.177414 0.571697 
1 0.726150 0.533742 -0.075554 0.901207 0.633851 
1 0.061720 -0.100585 -0.021149 0.118011 5.262752 
20
Atoms. Timestep: 28
1 0.385454 -0.764490 -0.052809 0.856166 5.179389 
1 0.039827 0.817623 0.205824 0.818592 1.522124 
1 -0.333386 0.224068 0.134115 0.401687 2.549839 
1 -0.186427 -0.568794 -0.011301 0.598566 4.395665 
1 0.387167 0.183132 0.006700 0.428294 0.441819 
1 0.025006 -0.924235 0.067856 0.924573 4.739439 
1 -0.096761 0.205797 0.053484 0.227409 2.010303 
1 0.317350 -0.027938 -0.181384 0.318577 6.195376 
1 -0.203325 0.129345 -0.049528 0.240980 2.575016 
1 -0.163623 -0.111304 0.249462 0.197891 3.738939 
1 -0.202080 -0.524017 0.169556 0.561632 4.344327 
1 -0.174849 -0.322003 0.068776 0.366412 4.214932 
1 -0.381060 0.388542 0.236388 0.544217 2.346473 
1 0.319259 -0.727225 0.013372 0.794218 5.126065 
1 -0.353331 0.294850 0.195765 0.460195 2.446174 
1 0.403867 0.104627 0.153862 0.417200 0.253490 
1 0.161521 0.019924 0.224664 0.162745 0.122734 
1 0.139314 0.109851 -0.153893 0.177413 0.667697 
1 0.721728 0.539705 -0.075554 0.901206 0.642089 
1 0.078185 -0.088398 -0.021149 0.118013 5.436554 
20
Atoms. Timestep: 29
1 0.392267 -0.761016 -0.052809 0.856166 5.188321 
1 0.031906 0.817970 0.205824 0.818592 1.531810 
1 -0.339472 0.214733 0.134115 0.401686 2.577584 
1 -0.177689 -0.571584 -0.011301 0.598566 4.410988 
1 0.382354 0.192977 0.006700 0.428293 0.467405 
1 0.032416 -0.924004 0.067856 0.924573 4.747457 
1 -0.110082 0.198988 0.053484 0.227408 2.076098 
1 0.318203 -0.015415 -0.181384 0.318576 6.234778 
1 -0.210793 0.116776 -0.049528 0.240978 2.635695 
1 -0.153999 -0.124277 0.249462 0.197890 3.820589 
1 -0.193105 -0.527390 0.169556 0.561631 4.361397 
1 -0.164538 -0.327390 0.068776 0.366411 4.246684 
1 -0.387815 0.381800 0.236388 0.544216 2.364010 