51
Atoms. Timestep: 0
0 0.000000 0.000000 0.000000 0.000000 0.000000  0.000000 0.000000 0.000000 
1 0.204701 -0.831338 -0.052809 0.856169 4.953817  -0.000001 1.262964 0.000000 
1 0.237146 0.783493 0.205824 0.818596 1.276884  -0.000001 1.344977 0.000000 
1 -0.110893 0.386090 0.134115 0.401700 1.850488  -0.000017 3.970050 0.000000 
1 -0.387191 -0.456478 -0.011301 0.598573 4.008932  -0.000003 2.174923 0.000000 
1 0.419321 -0.087269 0.006700 0.428306 6.077995  -0.000013 3.584327 0.000000 
1 -0.161665 -0.910332 0.067856 0.924576 4.536632  -0.000001 1.121910 0.000000 
1 0.214235 0.076370 0.053484 0.227440 0.342435  -0.000155 9.059640 0.000000 
1 0.148739 -0.281747 -0.181384 0.318598 5.198120  -0.000041 5.485563 0.000000 
1 0.123025 0.207245 -0.049528 0.241010 1.035081  -0.000122 8.288432 0.000000 
1 -0.021398 0.196764 0.249462 0.197924 1.679122  -0.000301 11.617246 0.000000 
1 -0.402870 -0.391324 0.169556 0.561639 3.912454  -0.000004 2.382700 0.000000 
1 -0.352819 -0.098935 0.068776 0.366428 3.414984  -0.000025 4.559372 0.000000 
1 -0.177751 0.514378 0.236388 0.544225 1.903514  -0.000005 2.475255 0.000000 
1 0.128625 -0.783737 0.013372 0.794222 4.875057  -0.000001 1.417198 0.000000 
1 -0.133208 0.440505 0.195765 0.460206 1.864451  -0.000010 3.183200 0.000000 
1 0.382398 -0.166847 0.153862 0.417212 5.871767  -0.000014 3.674721 0.000000 
1 -0.136326 -0.088936 0.224664 0.162771 3.719637  -0.000667 15.653711 0.000000 
1 -0.035404 -0.173877 -0.153893 0.177445 4.511523  -0.000406 12.997667 0.000000 
1 0.817534 0.379231 -0.075554 0.901209 0.434330  -0.000001 1.175023 0.000000 
1 0.058390 0.102530 -0.021149 0.117991 1.053113  -0.002267 24.786724 0.000000 
1 0.281174 -0.140787 0.235317 0.314451 5.818969  -0.000045 5.670553 0.000000 
1 -0.831418 -0.241666 -0.116667 0.865828 3.424466  -0.000001 1.247559 0.000000 
1 -0.431435 -0.073710 0.130124 0.437686 3.310808  -0.000012 3.414274 0.000000 
1 0.671295 0.201733 0.015803 0.700951 0.291927  -0.000002 1.703159 0.000000 
1 0.462356 -0.173603 0.215918 0.493874 5.924000  -0.000007 2.851682 0.000000 
1 -0.023424 -0.748491 -0.107853 0.748857 4.681104  -0.000001 1.538373 0.000000 
1 -0.226991 -0.636730 -0.072976 0.675981 4.369940  -0.000002 1.811020 0.000000 
1 0.213496 -0.128871 -0.029948 0.249375 5.740106  -0.000109 7.942911 0.000000 
1 0.083031 0.842198 -0.084831 0.846281 1.472526  -0.000001 1.278689 0.000000 
1 -0.324507 -0.843786 -0.074820 0.904035 4.345242  -0.000001 1.161358 0.000000 
1 -0.505742 -0.816947 0.044320 0.960821 4.158070  -0.000001 1.060934 0.000000 
1 0.787784 -0.375755 -0.030220 0.872809 5.838125  -0.000001 1.232464 0.000000 
1 -0.147312 -0.434289 0.157383 0.458593 4.385366  -0.000010 3.257254 0.000000 
1 0.168904 0.904235 -0.008755 0.919875 1.386132  -0.000001 1.134808 0.000000 
1 0.550816 0.780423 0.210064 0.955227 0.956194  -0.000001 1.072680 0.000000 
1 -0.823834 0.344482 0.070540 0.892956 2.745542  -0.000001 1.188959 0.000000 
1 0.179042 -0.632796 -0.109470 0.657637 4.988120  -0.000002 1.869296 0.000000 
1 0.013565 0.376467 -0.026483 0.376712 1.534779  -0.000021 4.307170 0.000000 
1 -0.230381 -0.138444 -0.111883 0.268779 3.682699  -0.000079 7.038117 0.000000 
1 0.415590 -0.229713 -0.165196 0.474851 5.778241  -0.000008 3.043243 0.000000 
1 -0.185385 -0.053137 -0.186962 0.192850 3.420741  -0.000301 11.617246 0.000000 
1 0.731249 -0.283903 0.242376 0.784428 5.912854  -0.000001 1.436267 0.000000 
1 0.030319 -0.715358 -0.058406 0.716000 4.754747  -0.000002 1.653178 0.000000 
1 0.008114 0.431721 -0.102920 0.431797 1.552003  -0.000012 3.497579 0.000000 
1 0.332297 0.530570 -0.127794 0.626040 1.011261  -0.000003 2.029515 0.000000 
1 0.233919 -0.721985 -0.187263 0.758934 5.025711  -0.000001 1.517002 0.000000 
1 0.192797 0.155498 0.122536 0.247690 0.678715  -0.000109 7.942911 0.000000 
1 -0.942293 -0.155845 -0.223735 0.955094 3.305498  -0.000001 1.072680 0.000000 
1 0.124477 -0.226657 -0.129969 0.258588 5.214608  -0.000098 7.620744 0.000000 
1 0.749124 -0.124439 0.078282 0.759389 6.118575  -0.000001 1.517002 0.000000 
51
Atoms. Timestep: 1
0 0.000000 0.000000 0.000000 0.000000 0.000000  0.000000 0.000000 0.000000 
1 0.232064 -0.824119 -0.052809 0.856169 4.986872  -0.000002 1.262964 0.000000 
1 0.209425 0.791354 0.205824 0.818596 1.312086  -0.000002 1.344977 0.000000 
1 -0.150340 0.372506 0.134115 0.401700 1.954395  -0.000034 3.970054 0.000000 
1 -0.360594 -0.477767 -0.011301 0.598573 4.065856  -0.000007 2.174923 0.000000 
1 0.425651 -0.047606 0.006700 0.428305 6.171807  -0.000026 3.584329 0.000000 
1 -0.134869 -0.914686 0.067856 0.924576 4.565996  -0.000001 1.121910 0.000000 
1 0.190296 0.124554 0.053484 0.227434 0.579553  -0.000304 9.059762 0.000000 
1 0.187520 -0.257565 -0.181384 0.318596 5.341692  -0.000081 5.485577 0.000000 
1 0.075533 0.228862 -0.049528 0.241005 1.252014  -0.000241 8.288514 0.000000 
1 -0.079323 0.181321 0.249462 0.197912 1.983184  -0.000585 11.617602 0.000000 
1 -0.377699 -0.415671 0.169556 0.561639 3.974816  -0.000009 2.382700 0.000000 
1 -0.338531 -0.140234 0.068776 0.366427 3.534316  -0.000049 4.559378 0.000000 
1 -0.210678 0.501792 0.236388 0.544224 1.968298  -0.000010 2.475255 0.000000 
1 0.157601 -0.778428 0.013372 0.794222 4.912149  -0.000002 1.417198 0.000000 
1 -0.169403 0.427892 0.195765 0.460205 1.947764  -0.000019 3.183202 0.000000 
1 0.396652 -0.129354 0.153862 0.417212 5.967945  -0.000028 3.674724 0.000000 
1 -0.089600 -0.135860 0.224664 0.162746 4.129361  -0.001271 15.655011 0.000000 
1 0.024641 -0.175710 -0.153893 0.177429 4.851718  -0.000785 12.998247 0.000000 
1 0.805487 0.404190 -0.075554 0.901209 0.465084  -0.000001 1.175023 0.000000 
1 -0.015422 0.116908 -0.021149 0.117921 1.701957  -0.003366 24.792735 0.000000 
1 0.298899 -0.097661 0.235317 0.314450 5.967384  -0.000088 5.670569 0.000000 
1 -0.823085 -0.268680 -0.116667 0.865828 3.457118  -0.000002 1.247559 0.000000 
1 -0.423135 -0.111918 0.130124 0.437686 3.400169  -0.000023 3.414275 0.000000 
1 0.661638 0.231446 0.015803 0.700951 0.336504  -0.000004 1.703159 0.000000 
1 0.474014 -0.138643 0.215918 0.493873 5.998636  -0.000014 2.851683 0.000000 
1 0.006723 -0.748827 -0.107853 0.748857 4.721367  -0.000003 1.538373 0.000000 
1 -0.196567 -0.646770 -0.072976 0.675981 4.417339  -0.000004 1.811020 0.000000 
1 0.235493 -0.082030 -0.029948 0.249371 5.947995  -0.000215 7.942979 0.000000 
1 0.054804 0.844505 -0.084831 0.846281 1.505992  -0.000002 1.278689 0.000000 
1 -0.298713 -0.853258 -0.074820 0.904035 4.375638  -0.000001 1.161358 0.000000 
1 -0.482865 -0.830674 0.044320 0.960821 4.185838  -0.000001 1.060934 0.000000 
1 0.799492 -0.350152 -0.030220 0.872809 5.870382  -0.000002 1.232464 0.000000 
1 -0.109798 -0.445254 0.157383 0.458592 4.470617  -0.000020 3.257255 0.000000 
1 0.141977 0.908852 -0.008755 0.919875 1.415834  -0.000001 1.134808 0.000000 
1 0.528692 0.795578 0.210064 0.955227 0.984269  -0.000001 1.072680 0.000000 
1 -0.834153 0.318683 0.070540 0.892956 2.776661  -0.000001 1.188959 0.000000 
1 0.209774 -0.623282 -0.109470 0.657637 5.037044  -0.000005 1.869296 0.000000 
1 -0.028870 0.375603 -0.026483 0.376711 1.647510  -0.000042 4.307175 0.000000 
1 -0.201122 -0.178298 -0.111883 0.268776 3.866907  -0.000156 7.038157 0.000000 
1 0.432550 -0.195918 -0.165196 0.474851 5.857891  -0.000017 3.043244 0.000000 
1 -0.160962 -0.106197 -0.186962 0.192838 3.724802  -0.000585 11.617602 0.000000 
1 0.741402 -0.256221 0.242376 0.784428 5.950445  -0.000002 1.436267 0.000000 
1 0.061233 -0.713377 -0.058406 0.716000 4.798015  -0.000003 1.653178 0.000000 
1 -0.031385 0.430654 -0.102920 0.431797 1.643544  -0.000024 3.497581 0.000000 
1 0.303659 0.547464 -0.127794 0.626039 1.064379  -0.000006 2.029515 0.000000 
1 0.262393 -0.712131 -0.187263 0.758934 5.065415  -0.000003 1.517002 0.000000 
1 0.156549 0.191939 0.122536 0.247686 0.886604  -0.000215 7.942979 0.000000 
1 -0.937547 -0.182235 -0.223735 0.955094 3.333573  -0.000001 1.072680 0.000000 
1 0.166916 -0.197497 -0.129969 0.258584 5.414065  -0.000193 7.620801 0.000000 
1 0.753473 -0.094606 0.078282 0.759389 6.158280  -0.000003 1.517002 0.000000 
51
Atoms. Timestep: 2
0 0.000000 0.000000 0.000000 0.000000 0.000000  0.000000 0.000000 0.000000 
1 0.259325 -0.815951 -0.052809 0.856169 5.020112  -0.000002 1.262964 0.000000 
1 0.181287 0.798270 0.205824 0.818596 1.347484  -0.000003 1.344977 0.000000 
1 -0.188371 0.354793 0.134115 0.401698 2.058884  -0.000051 3.970059 0.000000 
1 -0.332670 -0.497614 -0.011301 0.598573 4.123098  -0.000010 2.174923 0.000000 
1 0.428242 -0.007299 0.006700 0.428304 6.266143  -0.000039 3.584333 0.000000 
1 -0.107805 -0.918269 0.067856 0.924575 4.595523  -0.000002 1.121910 0.000000 
1 0.155486 0.165970 0.053484 0.227425 0.818001  -0.000438 9.059956 0.000000 
1 0.222624 -0.227904 -0.181384 0.318593 5.486068  -0.000119 5.485600 0.000000 
1 0.024212 0.239778 -0.049528 0.240997 1.470163  -0.000349 8.288648 0.000000 
1 -0.130215 0.149018 0.249462 0.197894 2.288958  -0.000818 11.618164 0.000000 
1 -0.350906 -0.438523 0.169556 0.561639 4.037526  -0.000013 2.382701 0.000000 
1 -0.319308 -0.179750 0.068776 0.366426 3.654315  -0.000073 4.559388 0.000000 
1 -0.242898 0.487012 0.236388 0.544224 2.033444  -0.000015 2.475256 0.000000 
1 0.186519 -0.772010 0.013372 0.794222 4.949448  -0.000003 1.417198 0.000000 
1 -0.204615 0.412215 0.195765 0.460205 2.031543  -0.000028 3.183204 0.000000 
1 0.407289 -0.090447 0.153862 0.417211 6.064661  -0.000041 3.674728 0.000000 
1 -0.027683 -0.160335 0.224664 0.162708 4.541418  -0.001664 15.656981 0.000000 
1 0.082149 -0.157239 -0.153893 0.177405 5.193834  -0.001075 12.999151 0.000000 
1 0.792604 0.428903 -0.075554 0.901209 0.496009  -0.000002 1.175023 0.000000 
1 -0.083191 0.083458 -0.021149 0.117839 2.354597  -0.003318 24.800127 0.000000 
1 0.310095 -0.052131 0.235317 0.314447 6.116629  -0.000130 5.670595 0.000000 
1 -0.813821 -0.295556 -0.116667 0.865828 3.489952  -0.000002 1.247559 0.000000 
1 -0.411383 -0.149439 0.130124 0.437685 3.490030  -0.000034 3.414278 0.000000 
1 0.650602 0.260862 0.015803 0.700951 0.381329  -0.000005 1.703159 0.000000 
1 0.483075 -0.102709 0.215918 0.493873 6.073690  -0.000021 2.851684 0.000000 
1 0.037029 -0.747941 -0.107853 0.748857 4.761856  -0.000004 1.538374 0.000000 
1 -0.165527 -0.655401 -0.072976 0.675981 4.465003  -0.000006 1.811020 0.000000 
1 0.247383 -0.031371 -0.029948 0.249364 6.157049  -0.000313 7.943090 0.000000 
1 0.026357 0.845870 -0.084831 0.846281 1.539646  -0.000003 1.278689 0.000000 
1 -0.272497 -0.861989 -0.074820 0.904035 4.406204  -0.000002 1.161358 0.000000 
1 -0.459485 -0.843831 0.044320 0.960821 4.213761  -0.000002 1.060934 0.000000 
1 0.810428 -0.324039 -0.030220 0.872809 5.902819  -0.000002 1.232464 0.000000 
1 -0.071270 -0.453020 0.157383 0.458592 4.556345  -0.000030 3.257258 0.000000 
1 0.114772 0.912687 -0.008755 0.919875 1.445701  -0.000002 1.134808 0.000000 
1 0.506023 0.810185 0.210064 0.955227 1.012501  -0.000002 1.072680 0.000000 
1 -0.843715 0.292429 0.070540 0.892956 2.807953  -0.000002 1.188959 0.000000 
1 0.240173 -0.612212 -0.109470 0.657637 5.086243  -0.000007 1.869296 0.000000 
1 -0.071172 0.369925 -0.026483 0.376710 1.760871  -0.000063 4.307183 0.000000 
1 -0.164839 -0.212287 -0.111883 0.268771 4.052146  -0.000229 7.038223 0.000000 
1 0.446838 -0.160681 -0.165196 0.474850 5.937987  -0.000025 3.043246 0.000000 
1 -0.121516 -0.149712 -0.186962 0.192820 4.030576  -0.000818 11.618164 0.000000 
1 0.750556 -0.228018 0.242376 0.784428 5.988246  -0.000003 1.436268 0.000000 
1 0.092205 -0.710039 -0.058406 0.716000 4.841525  -0.000005 1.653178 0.000000 
1 -0.070839 0.425945 -0.102920 0.431796 1.735598  -0.000036 3.497584 0.000000 
1 0.273997 0.562895 -0.127794 0.626039 1.117794  -0.000009 2.029515 0.000000 
1 0.290609 -0.701090 -0.187263 0.758934 5.105341  -0.000004 1.517002 0.000000 
1 0.113304 0.220244 0.122536 0.247679 1.095658  -0.000313 7.943090 0.000000 
1 -0.932029 -0.208627 -0.223735 0.955094 3.361805  -0.000002 1.072680 0.000000 
1 0.202913 -0.160279 -0.129969 0.258578 5.614639  -0.000281 7.620894 0.000000 
1 0.756648 -0.064455 0.078282 0.759389 6.198206  -0.000004 1.517002 0.000000 
51
Atoms. Timestep: 3
0 0.000000 0.000000 0.000000 0.000000 0.000000  0.000000 0.000000 0.000000 
1 0.286246 -0.806900 -0.052809 0.856169 5.053287  -0.000003 1.262964 0.000000 
1 0.152977 0.804175 0.205824 0.818596 1.382814  -0.000004 1.344977 0.000000 
1 -0.224279 0.333255 0.134115 0.401697 2.163167  -0.000067 3.970067 0.000000 
1 -0.303713 -0.515797 -0.011301 0.598572 4.180228  -0.000014 2.174924 0.000000 
1 0.427031 0.032994 0.006700 0.428303 0.077109  -0.000051 3.584338 0.000000 
1 -0.080701 -0.921047 0.067856 0.924575 4.624993  -0.000002 1.121910 0.000000 
1 0.111970 0.197936 0.053484 0.227412 1.055988  -0.000547 9.060215 0.000000 
1 0.253040 -0.193572 -0.181384 0.318590 5.630162  -0.000155 5.485631 0.000000 
1 -0.028153 0.239337 -0.049528 0.240987 1.687888  -0.000441 8.288826 0.000000 
1 -0.168954 0.102993 0.249462 0.197871 2.594149  -0.000975 11.618884 0.000000 
1 -0.322791 -0.459613 0.169556 0.561638 4.100114  -0.000017 2.382701 0.000000 
1 -0.295542 -0.216612 0.068776 0.366423 3.774079  -0.000096 4.559402 0.000000 
1 -0.274027 0.470201 0.236388 0.544224 2.098463  -0.000019 2.475257 0.000000 
1 0.215122 -0.764533 0.013372 0.794222 4.986675  -0.000004 1.417198 0.000000 
1 -0.238327 0.393685 0.195765 0.460204 2.115158  -0.000037 3.183207 0.000000 
1 0.414109 -0.050773 0.153862 0.417210 6.161187  -0.000055 3.674733 0.000000 
1 0.038718 -0.157989 0.224664 0.162664 4.952723  -0.001768 15.659288 0.000000 
1 0.130040 -0.120630 -0.153893 0.177375 5.535307  -0.001241 13.000279 0.000000 
1 0.778990 0.453159 -0.075554 0.901209 0.526874  -0.000003 1.175023 0.000000 
1 -0.116693 0.015905 -0.021149 0.117772 3.006126  -0.002270 24.806509 0.000000 
1 0.314394 -0.005535 0.235317 0.314443 6.265582  -0.000169 5.670631 0.000000 
1 -0.803700 -0.322062 -0.116667 0.865828 3.522723  -0.000003 1.247559 0.000000 
1 -0.396345 -0.185683 0.130124 0.437684 3.579715  -0.000045 3.414282 0.000000 
1 0.638285 0.289698 0.015803 0.700951 0.426067  -0.000007 1.703159 0.000000 
1 0.489406 -0.066269 0.215918 0.493872 6.148597  -0.000028 2.851686 0.000000 
1 0.067214 -0.745834 -0.107853 0.748857 4.802265  -0.000005 1.538374 0.000000 
1 -0.134174 -0.662531 -0.072976 0.675980 4.512575  -0.000008 1.811020 0.000000 
1 0.248507 0.020551 -0.029948 0.249355 0.082512  -0.000397 7.943239 0.000000 
1 -0.002063 0.846278 -0.084831 0.846281 1.573234  -0.000003 1.278689 0.000000 
1 -0.246079 -0.869899 -0.074820 0.904035 4.436710  -0.000003 1.161358 0.000000 
1 -0.435794 -0.856307 0.044320 0.960821 4.241629  -0.000002 1.060934 0.000000 
1 0.820492 -0.297637 -0.030220 0.872809 5.935193  -0.000003 1.232464 0.000000 
1 -0.032296 -0.457452 0.157383 0.458591 4.641905  -0.000040 3.257261 0.000000 
1 0.087520 0.915702 -0.008755 0.919875 1.475509  -0.000002 1.134808 0.000000 
1 0.482997 0.824119 0.210064 0.955227 1.040677  -0.000002 1.072680 0.000000 
1 -0.852435 0.265940 0.070540 0.892956 2.839184  -0.000003 1.188959 0.000000 
1 0.269932 -0.599685 -0.109470 0.657636 5.135344  -0.000009 1.869297 0.000000 
1 -0.112481 0.359523 -0.026483 0.376708 1.874010  -0.000083 4.307194 0.000000 
1 -0.123003 -0.238965 -0.111883 0.268764 4.237024  -0.000293 7.038313 0.000000 
1 0.458241 -0.124486 -0.165196 0.474849 6.017926  -0.000033 3.043248 0.000000 
1 -0.070907 -0.179284 -0.186962 0.192797 4.335768  -0.000975 11.618884 0.000000 
1 0.758622 -0.199546 0.242376 0.784427 6.025974  -0.000005 1.436268 0.000000 
1 0.122942 -0.705366 -0.058406 0.716000 4.884950  -0.000007 1.653178 0.000000 
1 -0.109618 0.417649 -0.102920 0.431795 1.827471  -0.000048 3.497588 0.000000 
1 0.243613 0.576695 -0.127794 0.626039 1.171104  -0.000011 2.029516 0.000000 
1 0.318308 -0.688956 -0.187263 0.758933 5.145189  -0.000005 1.517002 0.000000 
1 0.065223 0.238927 0.122536 0.247670 1.304306  -0.000397 7.943239 0.000000 
1 -0.925781 -0.234803 -0.223735 0.955094 3.389981  -0.000002 1.072680 0.000000 
1 0.230724 -0.116725 -0.129969 0.258570 5.814823  -0.000358 7.621020 0.000000 
1 0.758615 -0.034261 0.078282 0.759389 6.238054  -0.000005 1.517002 0.000000 
51
Atoms. Timestep: 4
0 0.000000 0.000000 0.000000 0.000000 0.000000  0.000000 0.000000 0.000000 
1 0.312873 -0.796954 -0.052809 0.856169 5.086488  -0.000004 1.262964 0.000000 
1 0.124454 0.809080 0.205824 0.818596 1.418170  -0.000005 1.344977 0.000000 
1 -0.257775 0.308076 0.134115 0.401695 2.267533  -0.000082 3.970077 0.000000 
1 -0.273743 -0.532309 -0.011301 0.598572 4.237403  -0.000017 2.174925 0.000000 
1 0.422031 0.073024 0.006700 0.428302 0.171335  -0.000063 3.584344 0.000000 
1 -0.053506 -0.923026 0.067856 0.924575 4.654486  -0.000003 1.121910 0.000000 
1 0.062105 0.218751 0.053484 0.227396 1.294167  -0.000626 9.060524 0.000000 
1 0.278227 -0.155197 -0.181384 0.318585 5.774369  -0.000189 5.485670 0.000000 
1 -0.079223 0.227579 -0.049528 0.240974 1.905787  -0.000513 8.289042 0.000000 
1 -0.192080 0.047411 0.249462 0.197845 2.899598  -0.001042 11.619694 0.000000 
1 -0.293388 -0.478916 0.169556 0.561638 4.162751  -0.000022 2.382702 0.000000 
1 -0.267520 -0.250394 0.068776 0.366421 3.893937  -0.000118 4.559420 0.000000 
1 -0.304021 0.451387 0.236388 0.544223 2.163533  -0.000024 2.475258 0.000000 
1 0.243449 -0.755990 0.013372 0.794222 5.023930  -0.000005 1.417198 0.000000 
1 -0.270397 0.372387 0.195765 0.460203 2.198838  -0.000046 3.183211 0.000000 
1 0.417073 -0.010595 0.153862 0.417208 6.257788  -0.000067 3.674740 0.000000 
1 0.098677 -0.129262 0.224664 0.162622 5.364405  -0.001569 15.661535 0.000000 
1 0.162919 -0.070057 -0.153893 0.177343 5.877075  -0.001261 13.001498 0.000000 
1 0.764623 0.477001 -0.075554 0.901209 0.557763  -0.000003 1.175023 0.000000 
1 -0.102368 -0.058162 -0.021149 0.117737 3.658279  -0.000745 24.810061 0.000000 
1 0.311725 0.041219 0.235317 0.314438 0.131467  -0.000205 5.670675 0.000000 
1 -0.792707 -0.348242 -0.116667 0.865828 3.555518  -0.000004 1.247559 0.000000 
1 -0.378104 -0.220461 0.130124 0.437683 3.669470  -0.000056 3.414288 0.000000 
1 0.624679 0.317976 0.015803 0.700951 0.470840  -0.000009 1.703159 0.000000 
1 0.492994 -0.029429 0.215918 0.493872 6.223562  -0.000035 2.851688 0.000000 
1 0.097313 -0.742507 -0.107853 0.748857 4.842706  -0.000007 1.538374 0.000000 
1 -0.102492 -0.668165 -0.072976 0.675980 4.560183  -0.000010 1.811020 0.000000 
1 0.238837 0.071617 -0.029948 0.249344 0.291326  -0.000465 7.943421 0.000000 
1 -0.030504 0.845731 -0.084831 0.846281 1.606848  -0.000004 1.278689 0.000000 
1 -0.219410 -0.877005 -0.074820 0.904035 4.467240  -0.000003 1.161358 0.000000 
1 -0.411745 -0.868126 0.044320 0.960821 4.269519  -0.000003 1.060934 0.000000 
1 0.829703 -0.270903 -0.030220 0.872808 5.967592  -0.000004 1.232464 0.000000 
1 0.006944 -0.458537 0.157383 0.458590 4.727532  -0.000049 3.257265 0.000000 
1 0.060168 0.917905 -0.008755 0.919875 1.505341  -0.000003 1.134808 0.000000 
1 0.459569 0.837409 0.210064 0.955227 1.068876  -0.000003 1.072680 0.000000 
1 -0.860329 0.239172 0.070540 0.892956 2.870439  -0.000003 1.188959 0.000000 
1 0.299062 -0.585702 -0.109470 0.657636 5.184485  -0.000011 1.869297 0.000000 
1 -0.152380 0.344510 -0.026483 0.376705 1.987238  -0.000102 4.307208 0.000000 
1 -0.076939 -0.257507 -0.111883 0.268755 4.422049  -0.000349 7.038423 0.000000 
1 0.466723 -0.087468 -0.165196 0.474848 6.097926  -0.000041 3.043251 0.000000 
1 -0.013708 -0.192283 -0.186962 0.192771 4.641216  -0.001042 11.619694 0.000000 
1 0.765614 -0.170768 0.242376 0.784427 6.063730  -0.000006 1.436268 0.000000 
1 0.153470 -0.699359 -0.058406 0.716000 4.928409  -0.000008 1.653178 0.000000 
1 -0.147501 0.405819 -0.102920 0.431793 1.919415  -0.000059 3.497594 0.000000 
1 0.212514 0.588865 -0.127794 0.626039 1.224456  -0.000014 2.029516 0.000000 
1 0.345522 -0.675717 -0.187263 0.758933 5.185068  -0.000007 1.517003 0.000000 
1 0.014276 0.247247 0.122536 0.247659 1.513120  -0.000465 7.943421 0.000000 
1 -0.918793 -0.260811 -0.223735 0.955093 3.418180  -0.000003 1.072680 0.000000 
1 0.249329 -0.068472 -0.129969 0.258560 6.015167  -0.000422 7.621173 0.000000 
1 0.759378 -0.003989 0.078282 0.759389 6.277933  -0.000007 1.517003 0.000000 
51
Atoms. Timestep: 5
0 0.000000 0.000000 0.000000 0.000000 0.000000  0.000000 0.000000 0.000000 
1 0.339230 -0.786096 -0.052809 0.856169 5.119784  -0.000005 1.262964 0.000000 
1 0.095694 0.812983 0.205824 0.818596 1.453628  -0.000006 1.344977 0.000000 
1 -0.288548 0.279458 0.134115 0.401693 2.372197  -0.000097 3.970089 0.000000 
1 -0.242788 -0.547121 -0.011301 0.598571 4.294741  -0.000020 2.174926 0.000000 
1 0.413256 0.112519 0.006700 0.428300 0.265830  -0.000075 3.584352 0.000000 
1 -0.026186 -0.924204 0.067856 0.924575 4.684063  -0.000004 1.121910 0.000000 
1 0.008584 0.227217 0.053484 0.227379 1.533037  -0.000671 9.060866 0.000000 
1 0.297684 -0.113478 -0.181384 0.318580 5.918989  -0.000218 5.485716 0.000000 
1 -0.126669 0.204980 -0.049528 0.240960 2.124317  -0.000561 8.289285 0.000000 
1 -0.197409 -0.012721 0.249462 0.197818 3.205942  -0.001010 11.620521 0.000000 
1 -0.262745 -0.496388 0.169556 0.561637 4.225566  -0.000026 2.382704 0.000000 
1 -0.235562 -0.280664 0.068776 0.366417 4.014138  -0.000138 4.559441 0.000000 
1 -0.332808 0.430600 0.236388 0.544222 2.228789  -0.000029 2.475260 0.000000 
1 0.271518 -0.746368 0.013372 0.794221 5.061292  -0.000007 1.417198 0.000000 
1 -0.300659 0.348410 0.195765 0.460201 2.282758  -0.000055 3.183215 0.000000 
1 0.416141 0.029797 0.153862 0.417206 0.071481  -0.000080 3.674749 0.000000 
1 0.142225 -0.078785 0.224664 0.162588 5.777317  -0.001087 15.663347 0.000000 
1 0.177152 -0.007500 -0.153893 0.177311 6.240873  -0.001154 13.800092 0.000000 
1 0.749482 0.500454 -0.075554 0.901209 0.588741  -0.000004 1.175024 0.000000 
1 -0.045856 -0.108444 -0.021149 0.117740 4.312336  0.000798 24.809988 0.000000 
1 0.302103 0.087187 0.235317 0.314432 0.280965  -0.000236 5.670728 0.000000 
1 -0.780827 -0.374120 -0.116667 0.865827 3.588408  -0.000005 1.247559 0.000000 
1 -0.356755 -0.253555 0.130124 0.437681 3.759481  -0.000066 3.414294 0.000000 
1 0.609776 0.345694 0.015803 0.700951 0.515740  -0.000011 1.703160 0.000000 
1 0.493811 0.007682 0.215918 0.493871 0.015556  -0.000041 2.851691 0.000000 
1 0.127338 -0.737951 -0.107853 0.748856 4.883262  -0.000008 1.538374 0.000000 
1 -0.070486 -0.672295 -0.072976 0.675980 4.607927  -0.000013 1.811021 0.000000 
1 0.218720 0.119698 -0.029948 0.249331 0.500743  -0.000513 7.943627 0.000000 
1 -0.058991 0.844222 -0.084831 0.846281 1.640559  -0.000005 1.278689 0.000000 
1 -0.192460 -0.883311 -0.074820 0.904035 4.497857  -0.000004 1.161358 0.000000 
1 -0.387306 -0.879302 0.044320 0.960821 4.297488  -0.000003 1.060934 0.000000 
1 0.838065 -0.243806 -0.030220 0.872808 6.000084  -0.000005 1.232464 0.000000 
1 0.046246 -0.456251 0.157383 0.458588 4.813404  -0.000058 3.257270 0.000000 
1 0.032684 0.919294 -0.008755 0.919875 1.535258  -0.000004 1.134808 0.000000 
1 0.435707 0.850069 0.210064 0.955227 1.097155  -0.000003 1.072680 0.000000 
1 -0.867402 0.212092 0.070540 0.892956 2.901784  -0.000004 1.188959 0.000000 
1 0.327551 -0.570259 -0.109470 0.657636 5.233765  -0.000014 1.869297 0.000000 
1 -0.190433 0.325023 -0.026483 0.376702 2.100790  -0.000120 4.307224 0.000000 
1 -0.028108 -0.267272 -0.111883 0.268746 4.607606  -0.000393 7.038551 0.000000 
1 0.472231 -0.049781 -0.165196 0.474847 6.178156  -0.000049 3.043255 0.000000 
1 0.044911 -0.187439 -0.186962 0.192744 4.947560  -0.001010 11.620521 0.000000 
1 0.771529 -0.141663 0.242376 0.784427 6.101595  -0.000007 1.436268 0.000000 
1 0.183795 -0.692008 -0.058406 0.716000 4.971992  -0.000010 1.653179 0.000000 
1 -0.184240 0.390512 -0.102920 0.431792 2.011623  -0.000070 3.497601 0.000000 
1 0.180717 0.599387 -0.127794 0.626038 1.277961  -0.000017 2.029517 0.000000 
1 0.372263 -0.661362 -0.187263 0.758933 5.225061  -0.000008 1.517003 0.000000 
1 -0.038549 0.244627 0.122536 0.247645 1.727093  -0.000561 8.289285 0.000000 
1 -0.911051 -0.286687 -0.223735 0.955093 3.446459  -0.000003 1.072680 0.000000 
1 0.257966 -0.017335 -0.129969 0.258548 6.216088  -0.000469 7.621348 0.000000 
1 0.758930 0.026376 0.078282 0.759388 0.034740  -0.000008 1.517003 0.000000 
51
Atoms. Timestep: 6
0 0.000000 0.000000 0.000000 0.000000 0.000000  0.000000 0.000000 0.000000 
1 0.365310 -0.774321 -0.052809 0.856168 5.153208  -0.000006 1.262964 0.000000 
1 0.066701 0.815873 0.205824 0.818595 1.489223  -0.000007 1.344978 0.000000 
1 -0.316263 0.247654 0.134115 0.401690 2.477265  -0.000111 3.970103 0.000000 
1 -0.210911 -0.560182 -0.011301 0.598571 4.352300  -0.000024 2.174927 0.000000 
1 0.400739 0.151155 0.006700 0.428298 0.360689  -0.000086 3.584361 0.000000 
1 0.001262 -0.924574 0.067856 0.924575 4.713754  -0.000004 1.121910 0.000000 
1 -0.045624 0.222737 0.053484 0.227362 1.772837  -0.000677 9.061223 0.000000 
1 0.310964 -0.069216 -0.181384 0.318574 6.064169  -0.000244 5.485768 0.000000 
1 -0.168231 0.172490 -0.049528 0.240945 2.343696  -0.000583 8.289545 0.000000 
1 -0.184273 -0.071875 0.249462 0.197794 3.513489  -0.000879 11.621285 0.000000 
1 -0.230942 -0.511958 0.169556 0.561636 4.288625  -0.000030 2.382705 0.000000 
1 -0.200063 -0.306975 0.068776 0.366413 4.134804  -0.000156 4.559465 0.000000 
1 -0.360281 0.407890 0.236388 0.544222 2.294296  -0.000033 2.475262 0.000000 
1 0.299314 -0.735662 0.013372 0.794221 5.098798  -0.000008 1.417198 0.000000 
1 -0.328908 0.321875 0.195765 0.460200 2.367002  -0.000063 3.183221 0.000000 
1 0.411279 0.070063 0.153862 0.417204 0.168733  -0.000091 3.674759 0.000000 
1 0.161893 -0.014827 0.224664 0.162571 6.191857  -0.000383 15.664359 0.000000 
1 0.168123 0.056259 -0.153893 0.177287 0.322919  -0.000774 13.801144 0.000000 
1 0.733560 0.523515 -0.075554 0.901209 0.619838  -0.000005 1.175024 0.000000 
1 0.029877 -0.113921 -0.021149 0.117774 4.968873  0.001797 24.807033 0.000000 
1 0.285665 0.131372 0.235317 0.314426 0.431041  -0.000263 5.670788 0.000000 
1 -0.768052 -0.399692 -0.116667 0.865827 3.621425  -0.000005 1.247559 0.000000 
1 -0.332418 -0.284712 0.130124 0.437679 3.849841  -0.000076 3.414301 0.000000 
1 0.593580 0.372819 0.015803 0.700950 0.560814  -0.000012 1.703160 0.000000 
1 0.491825 0.044893 0.215918 0.493869 0.091026  -0.000048 2.851694 0.000000 
1 0.157268 -0.732156 -0.107853 0.748856 4.923975  -0.000009 1.538374 0.000000 
1 -0.038195 -0.674900 -0.072976 0.675980 4.655856  -0.000015 1.811021 0.000000 
1 0.188914 0.162697 -0.029948 0.249317 0.710974  -0.000539 7.943850 0.000000 
1 -0.087520 0.841743 -0.084831 0.846280 1.674399  -0.000006 1.278689 0.000000 
1 -0.165225 -0.888808 -0.074820 0.904035 4.528592  -0.000004 1.161358 0.000000 
1 -0.362468 -0.889828 0.044320 0.960821 4.325566  -0.000003 1.060934 0.000000 
1 0.845570 -0.216346 -0.030220 0.872808 6.032701  -0.000005 1.232465 0.000000 
1 0.085355 -0.450573 0.157383 0.458587 4.899608  -0.000067 3.257276 0.000000 
1 0.005064 0.919860 -0.008755 0.919874 1.565291  -0.000004 1.134808 0.000000 
1 0.411403 0.862094 0.210064 0.955227 1.125544  -0.000004 1.072681 0.000000 
1 -0.873645 0.184698 0.070540 0.892956 2.933250  -0.000005 1.188959 0.000000 
1 0.355350 -0.553363 -0.109470 0.657635 5.283236  -0.000016 1.869298 0.000000 
1 -0.226165 0.301250 -0.026483 0.376699 2.214781  -0.000136 4.307244 0.000000 
1 0.023872 -0.267672 -0.111883 0.268734 4.801339  -0.000459 7.320455 0.000000 
1 0.474703 -0.011627 -0.165196 0.474846 6.258696  -0.000056 3.043260 0.000000 
1 0.099533 -0.165028 -0.186962 0.192720 5.255107  -0.000879 11.621285 0.000000 
1 0.776355 -0.112241 0.242376 0.784427 6.139606  -0.000008 1.436268 0.000000 
1 0.213886 -0.683307 -0.058406 0.715999 5.015743  -0.000011 1.653179 0.000000 
1 -0.219546 0.371809 -0.102920 0.431790 2.104187  -0.000081 3.497609 0.000000 
1 0.148278 0.608224 -0.127794 0.626038 1.331672  -0.000020 2.029518 0.000000 
1 0.398507 -0.645888 -0.187263 0.758933 5.265209  -0.000009 1.517003 0.000000 
1 -0.090856 0.230360 0.122536 0.247630 1.946473  -0.000583 8.289545 0.000000 
1 -0.902546 -0.312431 -0.223735 0.955093 3.474848  -0.000004 1.072681 0.000000 
1 0.256197 0.034695 -0.129969 0.258535 0.134604  -0.000498 7.621539 0.000000 
1 0.757260 0.056816 0.078282 0.759388 0.074888  -0.000009 1.517003 0.000000 
51
Atoms. Timestep: 7
0 0.000000 0.000000 0.000000 0.000000 0.000000  0.000000 0.000000 0.000000 
1 0.390972 -0.761686 -0.052809 0.856168 5.186618  -0.000006 1.262964 0.000000 
1 0.037637 0.817730 0.205824 0.818595 1.524803  -0.000008 1.344978 0.000000 
1 -0.340480 0.213134 0.134115 0.401687 2.582289  -0.000124 3.970118 0.000000 
1 -0.178350 -0.571382 -0.011301 0.598570 4.409834  -0.000027 2.174928 0.000000 
1 0.384625 0.188415 0.006700 0.428295 0.455508  -0.000096 3.584371 0.000000 
1 0.028698 -0.924130 0.067856 0.924575 4.743433  -0.000005 1.121910 0.000000 
1 -0.097194 0.205521 0.053484 0.227345 2.012543  -0.000644 9.061572 0.000000 
1 0.317698 -0.023520 -0.181384 0.318567 6.209288  -0.000264 5.485826 0.000000 
1 -0.201713 0.131754 -0.049528 0.240930 2.562987  -0.000577 8.289809 0.000000 
1 -0.153867 -0.124256 0.249462 0.197774 3.820920  -0.000657 11.621906 0.000000 
1 -0.198235 -0.525488 0.169556 0.561636 4.351655  -0.000034 2.382707 0.000000 
1 -0.161671 -0.328813 0.068776 0.366409 4.255418  -0.000173 4.559493 0.000000 
1 -0.386198 0.383441 0.236388 0.544221 2.359776  -0.000037 2.475264 0.000000 
1 0.326677 -0.723926 0.013372 0.794221 5.136288  -0.000009 1.417199 0.000000 
1 -0.354814 0.293069 0.195765 0.460198 2.451209  -0.000071 3.183227 0.000000 
1 0.402534 0.109649 0.153862 0.417201 0.265944  -0.000102 3.674770 0.000000 
1 0.154163 0.051609 0.224664 0.162573 0.323044  0.000433 15.664336 0.000000 
1 0.136946 0.112570 -0.153893 0.177274 0.688013  -0.000270 13.801713 0.000000 
1 0.716935 0.546060 -0.075554 0.901209 0.650921  -0.000005 1.175024 0.000000 
1 0.093211 -0.072067 -0.021149 0.117822 5.625030  0.002024 24.802417 0.000000 
1 0.262817 0.172586 0.235317 0.314418 0.581054  -0.000284 5.670854 0.000000 